<?xml version="1.0"?>
<VTKFile type="UnstructuredGrid" version="0.1" byte_order="LittleEndian" header_type="UInt32" compressor="vtkZLibDataCompressor">
  <UnstructuredGrid>
    <Piece NumberOfPoints="1331" NumberOfCells="2000">
      <PointData>
      </PointData>
      <CellData>
        <DataArray type="Float64" Name="Partition" format="ascii" RangeMin="0" RangeMax="0">
          0 0 0 0 0 0
          0 0 0 0 0 0
          0 0 0 0 0 0
          0 0 0 0 0 0
          0 0 0 0 0 0
          0 0 0 0 0 0
          0 0 0 0 0 0
          0 0 0 0 0 0
          0 0 0 0 0 0
          0 0 0 0 0 0
          0 0 0 0 0 0
          0 0 0 0 0 0
          0 0 0 0 0 0
          0 0 0 0 0 0
          0 0 0 0 0 0
          0 0 0 0 0 0
          0 0 0 0 0 0
          0 0 0 0 0 0
          0 0 0 0 0 0
          0 0 0 0 0 0
          0 0 0 0 0 0
          0 0 0 0 0 0
          0 0 0 0 0 0
          0 0 0 0 0 0
          0 0 0 0 0 0
          0 0 0 0 0 0
          0 0 0 0 0 0
          0 0 0 0 0 0
          0 0 0 0 0 0
          0 0 0 0 0 0
          0 0 0 0 0 0
          0 0 0 0 0 0
          0 0 0 0 0 0
          0 0 0 0 0 0
          0 0 0 0 0 0
          0 0 0 0 0 0
          0 0 0 0 0 0
          0 0 0 0 0 0
          0 0 0 0 0 0
          0 0 0 0 0 0
          0 0 0 0 0 0
          0 0 0 0 0 0
          0 0 0 0 0 0
          0 0 0 0 0 0
          0 0 0 0 0 0
          0 0 0 0 0 0
          0 0 0 0 0 0
          0 0 0 0 0 0
          0 0 0 0 0 0
          0 0 0 0 0 0
          0 0 0 0 0 0
          0 0 0 0 0 0
          0 0 0 0 0 0
          0 0 0 0 0 0
          0 0 0 0 0 0
          0 0 0 0 0 0
          0 0 0 0 0 0
          0 0 0 0 0 0
          0 0 0 0 0 0
          0 0 0 0 0 0
          0 0 0 0 0 0
          0 0 0 0 0 0
          0 0 0 0 0 0
          0 0 0 0 0 0
          0 0 0 0 0 0
          0 0 0 0 0 0
          0 0 0 0 0 0
          0 0 0 0 0 0
          0 0 0 0 0 0
          0 0 0 0 0 0
          0 0 0 0 0 0
          0 0 0 0 0 0
          0 0 0 0 0 0
          0 0 0 0 0 0
          0 0 0 0 0 0
          0 0 0 0 0 0
          0 0 0 0 0 0
          0 0 0 0 0 0
          0 0 0 0 0 0
          0 0 0 0 0 0
          0 0 0 0 0 0
          0 0 0 0 0 0
          0 0 0 0 0 0
          0 0 0 0 0 0
          0 0 0 0 0 0
          0 0 0 0 0 0
          0 0 0 0 0 0
          0 0 0 0 0 0
          0 0 0 0 0 0
          0 0 0 0 0 0
          0 0 0 0 0 0
          0 0 0 0 0 0
          0 0 0 0 0 0
          0 0 0 0 0 0
          0 0 0 0 0 0
          0 0 0 0 0 0
          0 0 0 0 0 0
          0 0 0 0 0 0
          0 0 0 0 0 0
          0 0 0 0 0 0
          0 0 0 0 0 0
          0 0 0 0 0 0
          0 0 0 0 0 0
          0 0 0 0 0 0
          0 0 0 0 0 0
          0 0 0 0 0 0
          0 0 0 0 0 0
          0 0 0 0 0 0
          0 0 0 0 0 0
          0 0 0 0 0 0
          0 0 0 0 0 0
          0 0 0 0 0 0
          0 0 0 0 0 0
          0 0 0 0 0 0
          0 0 0 0 0 0
          0 0 0 0 0 0
          0 0 0 0 0 0
          0 0 0 0 0 0
          0 0 0 0 0 0
          0 0 0 0 0 0
          0 0 0 0 0 0
          0 0 0 0 0 0
          0 0 0 0 0 0
          0 0 0 0 0 0
          0 0 0 0 0 0
          0 0 0 0 0 0
          0 0 0 0 0 0
          0 0 0 0 0 0
          0 0 0 0 0 0
          0 0 0 0 0 0
          0 0 0 0 0 0
          0 0 0 0 0 0
          0 0 0 0 0 0
          0 0 0 0 0 0
          0 0 0 0 0 0
          0 0 0 0 0 0
          0 0 0 0 0 0
          0 0 0 0 0 0
          0 0 0 0 0 0
          0 0 0 0 0 0
          0 0 0 0 0 0
          0 0 0 0 0 0
          0 0 0 0 0 0
          0 0 0 0 0 0
          0 0 0 0 0 0
          0 0 0 0 0 0
          0 0 0 0 0 0
          0 0 0 0 0 0
          0 0 0 0 0 0
          0 0 0 0 0 0
          0 0 0 0 0 0
          0 0 0 0 0 0
          0 0 0 0 0 0
          0 0 0 0 0 0
          0 0 0 0 0 0
          0 0 0 0 0 0
          0 0 0 0 0 0
          0 0 0 0 0 0
          0 0 0 0 0 0
          0 0 0 0 0 0
          0 0 0 0 0 0
          0 0 0 0 0 0
          0 0 0 0 0 0
          0 0 0 0 0 0
          0 0 0 0 0 0
          0 0 0 0 0 0
          0 0 0 0 0 0
          0 0 0 0 0 0
          0 0 0 0 0 0
          0 0 0 0 0 0
          0 0 0 0 0 0
          0 0 0 0 0 0
          0 0 0 0 0 0
          0 0 0 0 0 0
          0 0 0 0 0 0
          0 0 0 0 0 0
          0 0 0 0 0 0
          0 0 0 0 0 0
          0 0 0 0 0 0
          0 0 0 0 0 0
          0 0 0 0 0 0
          0 0 0 0 0 0
          0 0 0 0 0 0
          0 0 0 0 0 0
          0 0 0 0 0 0
          0 0 0 0 0 0
          0 0 0 0 0 0
          0 0 0 0 0 0
          0 0 0 0 0 0
          0 0 0 0 0 0
          0 0 0 0 0 0
          0 0 0 0 0 0
          0 0 0 0 0 0
          0 0 0 0 0 0
          0 0 0 0 0 0
          0 0 0 0 0 0
          0 0 0 0 0 0
          0 0 0 0 0 0
          0 0 0 0 0 0
          0 0 0 0 0 0
          0 0 0 0 0 0
          0 0 0 0 0 0
          0 0 0 0 0 0
          0 0 0 0 0 0
          0 0 0 0 0 0
          0 0 0 0 0 0
          0 0 0 0 0 0
          0 0 0 0 0 0
          0 0 0 0 0 0
          0 0 0 0 0 0
          0 0 0 0 0 0
          0 0 0 0 0 0
          0 0 0 0 0 0
          0 0 0 0 0 0
          0 0 0 0 0 0
          0 0 0 0 0 0
          0 0 0 0 0 0
          0 0 0 0 0 0
          0 0 0 0 0 0
          0 0 0 0 0 0
          0 0 0 0 0 0
          0 0 0 0 0 0
          0 0 0 0 0 0
          0 0 0 0 0 0
          0 0 0 0 0 0
          0 0 0 0 0 0
          0 0 0 0 0 0
          0 0 0 0 0 0
          0 0 0 0 0 0
          0 0 0 0 0 0
          0 0 0 0 0 0
          0 0 0 0 0 0
          0 0 0 0 0 0
          0 0 0 0 0 0
          0 0 0 0 0 0
          0 0 0 0 0 0
          0 0 0 0 0 0
          0 0 0 0 0 0
          0 0 0 0 0 0
          0 0 0 0 0 0
          0 0 0 0 0 0
          0 0 0 0 0 0
          0 0 0 0 0 0
          0 0 0 0 0 0
          0 0 0 0 0 0
          0 0 0 0 0 0
          0 0 0 0 0 0
          0 0 0 0 0 0
          0 0 0 0 0 0
          0 0 0 0 0 0
          0 0 0 0 0 0
          0 0 0 0 0 0
          0 0 0 0 0 0
          0 0 0 0 0 0
          0 0 0 0 0 0
          0 0 0 0 0 0
          0 0 0 0 0 0
          0 0 0 0 0 0
          0 0 0 0 0 0
          0 0 0 0 0 0
          0 0 0 0 0 0
          0 0 0 0 0 0
          0 0 0 0 0 0
          0 0 0 0 0 0
          0 0 0 0 0 0
          0 0 0 0 0 0
          0 0 0 0 0 0
          0 0 0 0 0 0
          0 0 0 0 0 0
          0 0 0 0 0 0
          0 0 0 0 0 0
          0 0 0 0 0 0
          0 0 0 0 0 0
          0 0 0 0 0 0
          0 0 0 0 0 0
          0 0 0 0 0 0
          0 0 0 0 0 0
          0 0 0 0 0 0
          0 0 0 0 0 0
          0 0 0 0 0 0
          0 0 0 0 0 0
          0 0 0 0 0 0
          0 0 0 0 0 0
          0 0 0 0 0 0
          0 0 0 0 0 0
          0 0 0 0 0 0
          0 0 0 0 0 0
          0 0 0 0 0 0
          0 0 0 0 0 0
          0 0 0 0 0 0
          0 0 0 0 0 0
          0 0 0 0 0 0
          0 0 0 0 0 0
          0 0 0 0 0 0
          0 0 0 0 0 0
          0 0 0 0 0 0
          0 0 0 0 0 0
          0 0 0 0 0 0
          0 0 0 0 0 0
          0 0 0 0 0 0
          0 0 0 0 0 0
          0 0 0 0 0 0
          0 0 0 0 0 0
          0 0 0 0 0 0
          0 0 0 0 0 0
          0 0 0 0 0 0
          0 0 0 0 0 0
          0 0 0 0 0 0
          0 0 0 0 0 0
          0 0 0 0 0 0
          0 0 0 0 0 0
          0 0 0 0 0 0
          0 0 0 0 0 0
          0 0 0 0 0 0
          0 0 0 0 0 0
          0 0 0 0 0 0
          0 0 0 0 0 0
          0 0 0 0 0 0
          0 0 0 0 0 0
          0 0 0 0 0 0
          0 0 0 0 0 0
          0 0 0 0 0 0
          0 0 0 0 0 0
          0 0 0 0 0 0
          0 0 0 0 0 0
          0 0 0 0 0 0
          0 0 0 0 0 0
          0 0 0 0 0 0
          0 0 0 0 0 0
          0 0 0 0 0 0
          0 0 0 0 0 0
          0 0 0 0 0 0
          0 0 0 0 0 0
          0 0
        </DataArray>
      </CellData>
      <Points>
        <DataArray type="Float32" Name="Points" NumberOfComponents="3" format="ascii" RangeMin="0" RangeMax="17.320508076">
          6 10 10 10 10 0
          0 10 0 0 0 0
          10 0 0 0 0 10
          3 0 0 2 0 0
          10 0 10 10 10 10
          0 10 10 1 0 0
          10 1 0 10 7 0
          4 0 0 5 0 0
          6 0 0 7 0 0
          8 0 0 9 0 0
          2 10 0 1 10 0
          0 9 0 10 2 0
          10 3 0 10 4 0
          10 5 0 10 6 0
          4 0 10 5 0 10
          6 0 10 10 8 0
          10 9 0 9 10 0
          8 10 0 7 10 0
          6 10 0 5 10 0
          4 10 0 3 10 0
          5 10 10 4 10 10
          3 10 10 2 10 10
          1 10 10 0 8 0
          0 7 0 0 6 0
          0 5 0 0 4 0
          0 3 0 0 2 0
          0 1 0 1 0 10
          2 0 10 3 0 10
          10 0 9 10 10 1
          10 10 2 10 10 3
          10 10 4 10 10 5
          10 10 6 10 10 7
          7 0 10 8 0 10
          9 0 10 10 1 10
          10 2 10 10 3 10
          10 4 10 10 5 10
          10 6 10 10 7 10
          10 8 10 10 9 10
          9 10 10 8 10 10
          7 10 10 5 2 0
          6 2 0 7 2 0
          8 2 0 9 2 0
          1 3 0 2 3 0
          3 3 0 4 3 0
          5 3 0 0 9 10
          0 8 10 0 7 10
          0 6 10 0 5 10
          0 4 10 0 3 10
          0 2 10 0 1 10
          0 0 1 0 0 2
          0 0 3 0 0 4
          0 0 5 0 0 6
          0 0 7 0 0 8
          0 0 9 10 0 1
          10 0 2 10 0 3
          10 0 4 10 0 5
          10 0 6 10 0 7
          10 0 8 3 1 10
          4 1 10 5 1 10
          6 1 10 7 1 10
          8 1 10 9 1 10
          1 2 10 2 2 10
          3 2 10 4 2 10
          5 2 10 6 2 10
          7 2 10 8 2 10
          9 2 10 10 10 8
          10 10 9 0 10 1
          0 10 2 0 10 3
          0 10 4 0 10 5
          0 10 6 0 10 7
          0 10 8 0 10 9
          1 1 0 2 1 0
          3 1 0 4 1 0
          5 1 0 6 1 0
          7 1 0 8 1 0
          9 1 0 1 2 0
          2 2 0 3 2 0
          4 2 0 7 7 10
          8 7 10 9 7 10
          1 8 10 2 8 10
          3 8 10 4 8 10
          5 8 10 6 8 10
          7 8 10 8 8 10
          9 8 10 1 9 10
          2 9 10 3 9 10
          4 9 10 5 9 10
          6 9 10 7 9 10
          8 9 10 6 3 0
          7 3 0 8 3 0
          9 3 0 1 4 0
          2 4 0 3 4 0
          4 4 0 5 4 0
          6 4 0 7 4 0
          8 4 0 9 4 0
          1 5 0 2 5 0
          3 5 0 4 5 0
          5 5 0 6 5 0
          7 5 0 8 5 0
          9 5 0 1 6 0
          2 6 0 3 6 0
          4 6 0 5 6 0
          6 6 0 7 6 0
          8 6 0 9 6 0
          1 7 0 2 7 0
          3 7 0 4 7 0
          5 7 0 6 7 0
          7 7 0 8 7 0
          9 7 0 1 8 0
          2 8 0 3 8 0
          4 8 0 5 8 0
          6 8 0 7 8 0
          8 8 0 9 8 0
          1 9 0 2 9 0
          3 9 0 4 9 0
          5 9 0 6 9 0
          7 9 0 8 9 0
          9 9 0 1 1 10
          2 1 10 6 10 6
          7 10 6 8 10 6
          9 10 6 1 10 7
          2 10 7 3 10 7
          4 10 7 5 10 7
          6 10 7 7 10 7
          8 10 7 9 10 7
          1 10 8 2 10 8
          3 10 8 4 10 8
          5 10 8 6 10 8
          7 10 8 8 10 8
          9 10 8 1 10 9
          2 10 9 3 10 9
          4 10 9 5 10 9
          6 10 9 7 10 9
          8 10 9 9 10 9
          1 3 10 2 3 10
          3 3 10 4 3 10
          5 3 10 6 3 10
          7 3 10 8 3 10
          9 3 10 1 4 10
          2 4 10 3 4 10
          4 4 10 5 4 10
          6 4 10 7 4 10
          8 4 10 9 4 10
          1 5 10 2 5 10
          3 5 10 4 5 10
          5 5 10 6 5 10
          7 5 10 8 5 10
          9 5 10 1 6 10
          2 6 10 3 6 10
          4 6 10 5 6 10
          6 6 10 7 6 10
          8 6 10 9 6 10
          1 7 10 2 7 10
          3 7 10 4 7 10
          5 7 10 6 7 10
          0 2 9 0 3 9
          0 4 9 0 5 9
          0 6 9 0 7 9
          0 8 9 0 9 9
          10 1 1 10 2 1
          10 3 1 10 4 1
          10 5 1 10 6 1
          10 7 1 10 8 1
          10 9 1 10 1 2
          10 2 2 10 3 2
          10 4 2 10 5 2
          10 6 2 10 7 2
          10 8 2 10 9 2
          10 1 3 10 2 3
          10 3 3 10 4 3
          10 5 3 10 6 3
          10 7 3 10 8 3
          10 9 3 10 1 4
          10 2 4 10 3 4
          10 4 4 9 9 10
          1 0 1 2 0 1
          3 0 1 4 0 1
          5 0 1 6 0 1
          7 0 1 8 0 1
          9 0 1 1 0 2
          2 0 2 3 0 2
          4 0 2 5 0 2
          6 0 2 7 0 2
          8 0 2 9 0 2
          1 0 3 2 0 3
          3 0 3 4 0 3
          5 0 3 6 0 3
          7 0 3 8 0 3
          9 0 3 1 0 4
          2 0 4 3 0 4
          4 0 4 5 0 4
          6 0 4 7 0 4
          8 0 4 9 0 4
          1 0 5 2 0 5
          3 0 5 4 0 5
          5 0 5 6 0 5
          7 0 5 8 0 5
          9 0 5 1 0 6
          2 0 6 3 0 6
          4 0 6 5 0 6
          6 0 6 7 0 6
          8 0 6 9 0 6
          1 0 7 2 0 7
          3 0 7 4 0 7
          5 0 7 6 0 7
          7 0 7 8 0 7
          9 0 7 1 0 8
          2 0 8 3 0 8
          4 0 8 5 0 8
          6 0 8 7 0 8
          8 0 8 9 0 8
          1 0 9 2 0 9
          3 0 9 4 0 9
          5 0 9 6 0 9
          7 0 9 8 0 9
          9 0 9 1 10 1
          2 10 1 3 10 1
          4 10 1 5 10 1
          6 10 1 7 10 1
          8 10 1 9 10 1
          1 10 2 2 10 2
          3 10 2 4 10 2
          5 10 2 6 10 2
          7 10 2 8 10 2
          9 10 2 1 10 3
          2 10 3 3 10 3
          4 10 3 5 10 3
          6 10 3 7 10 3
          8 10 3 9 10 3
          1 10 4 2 10 4
          3 10 4 4 10 4
          5 10 4 6 10 4
          7 10 4 8 10 4
          9 10 4 1 10 5
          2 10 5 3 10 5
          4 10 5 5 10 5
          6 10 5 7 10 5
          8 10 5 9 10 5
          1 10 6 2 10 6
          3 10 6 4 10 6
          5 10 6 6 7 3
          7 7 3 8 7 3
          9 7 3 1 8 3
          2 8 3 3 8 3
          4 8 3 5 8 3
          6 8 3 7 8 3
          8 8 3 9 8 3
          1 9 3 2 9 3
          3 9 3 4 9 3
          5 9 3 6 9 3
          7 9 3 8 9 3
          9 9 3 1 1 4
          2 1 4 3 1 4
          4 1 4 5 1 4
          6 1 4 7 1 4
          8 1 4 9 1 4
          1 2 4 2 2 4
          3 2 4 4 2 4
          5 2 4 6 2 4
          7 2 4 8 2 4
          9 2 4 1 3 4
          2 3 4 3 3 4
          4 3 4 5 3 4
          6 3 4 7 3 4
          8 3 4 9 3 4
          1 4 4 2 4 4
          3 4 4 4 4 4
          5 4 4 6 4 4
          7 4 4 8 4 4
          9 4 4 1 5 4
          2 5 4 3 5 4
          4 5 4 5 5 4
          0 1 1 0 2 1
          0 3 1 0 4 1
          0 5 1 0 6 1
          0 7 1 0 8 1
          0 9 1 0 1 2
          0 2 2 0 3 2
          0 4 2 0 5 2
          0 6 2 0 7 2
          0 8 2 0 9 2
          0 1 3 0 2 3
          0 3 3 0 4 3
          0 5 3 0 6 3
          0 7 3 0 8 3
          0 9 3 0 1 4
          0 2 4 0 3 4
          0 4 4 0 5 4
          0 6 4 0 7 4
          0 8 4 0 9 4
          0 1 5 0 2 5
          0 3 5 0 4 5
          0 5 5 0 6 5
          0 7 5 0 8 5
          0 9 5 0 1 6
          0 2 6 0 3 6
          0 4 6 0 5 6
          0 6 6 0 7 6
          0 8 6 0 9 6
          0 1 7 0 2 7
          0 3 7 0 4 7
          0 5 7 0 6 7
          0 7 7 0 8 7
          0 9 7 0 1 8
          0 2 8 0 3 8
          0 4 8 0 5 8
          0 6 8 0 7 8
          0 8 8 0 9 8
          0 1 9 1 3 6
          2 3 6 3 3 6
          4 3 6 5 3 6
          6 3 6 7 3 6
          8 3 6 9 3 6
          1 4 6 2 4 6
          3 4 6 4 4 6
          5 4 6 6 4 6
          7 4 6 8 4 6
          9 4 6 1 5 6
          2 5 6 3 5 6
          4 5 6 5 5 6
          6 5 6 7 5 6
          8 5 6 9 5 6
          1 6 6 2 6 6
          3 6 6 4 6 6
          5 6 6 6 6 6
          7 6 6 8 6 6
          9 6 6 1 7 6
          2 7 6 3 7 6
          4 7 6 5 7 6
          6 7 6 7 7 6
          8 7 6 9 7 6
          1 8 6 2 8 6
          3 8 6 4 8 6
          5 8 6 6 8 6
          7 8 6 8 8 6
          9 8 6 1 9 6
          2 9 6 3 9 6
          4 9 6 5 9 6
          6 9 6 7 9 6
          8 9 6 9 9 6
          1 1 7 2 1 7
          3 1 7 4 1 7
          5 1 7 6 1 7
          7 1 7 8 1 7
          9 1 7 1 2 7
          2 2 7 3 2 7
          4 2 7 5 2 7
          6 2 7 7 2 7
          10 5 4 10 6 4
          10 7 4 10 8 4
          10 9 4 10 1 5
          10 2 5 10 3 5
          10 4 5 10 5 5
          10 6 5 10 7 5
          10 8 5 10 9 5
          10 1 6 10 2 6
          10 3 6 10 4 6
          10 5 6 10 6 6
          10 7 6 10 8 6
          10 9 6 10 1 7
          10 2 7 10 3 7
          10 4 7 10 5 7
          10 6 7 10 7 7
          10 8 7 10 9 7
          10 1 8 10 2 8
          10 3 8 10 4 8
          10 5 8 10 6 8
          10 7 8 10 8 8
          10 9 8 10 1 9
          10 2 9 10 3 9
          10 4 9 10 5 9
          10 6 9 10 7 9
          10 8 9 10 9 9
          1 1 1 2 1 1
          3 1 1 4 1 1
          5 1 1 6 1 1
          7 1 1 8 1 1
          9 1 1 1 2 1
          2 2 1 3 2 1
          4 2 1 5 2 1
          6 2 1 7 2 1
          8 2 1 9 2 1
          1 3 1 2 3 1
          3 3 1 4 3 1
          5 3 1 6 3 1
          7 3 1 8 3 1
          9 3 1 1 4 1
          2 4 1 3 4 1
          4 4 1 5 4 1
          6 4 1 7 4 1
          8 4 1 9 4 1
          1 5 1 2 5 1
          3 5 1 4 5 1
          5 5 1 6 5 1
          7 5 1 8 5 1
          9 5 1 1 6 1
          2 6 1 3 6 1
          4 6 1 5 6 1
          6 6 1 7 6 1
          8 6 1 9 6 1
          1 7 1 2 7 1
          3 7 1 4 7 1
          5 7 1 6 7 1
          7 7 1 8 7 1
          9 7 1 1 8 1
          2 8 1 3 8 1
          4 8 1 5 8 1
          6 8 1 7 8 1
          8 8 1 9 8 1
          1 9 1 2 9 1
          3 9 1 4 9 1
          5 9 1 6 9 1
          7 9 1 8 9 1
          9 9 1 1 1 2
          2 1 2 3 1 2
          4 1 2 5 1 2
          6 1 2 7 1 2
          8 1 2 9 1 2
          1 2 2 2 2 2
          3 2 2 4 2 2
          5 2 2 6 2 2
          7 2 2 8 2 2
          9 2 2 1 3 2
          2 3 2 3 3 2
          4 3 2 5 3 2
          6 3 2 7 3 2
          8 3 2 9 3 2
          1 4 2 2 4 2
          3 4 2 4 4 2
          5 4 2 6 4 2
          7 4 2 8 4 2
          9 4 2 1 5 2
          2 5 2 3 5 2
          4 5 2 5 5 2
          6 5 2 7 5 2
          8 5 2 9 5 2
          1 6 2 2 6 2
          3 6 2 4 6 2
          5 6 2 6 6 2
          7 6 2 8 6 2
          9 6 2 1 7 2
          2 7 2 3 7 2
          4 7 2 5 7 2
          6 7 2 7 7 2
          8 7 2 9 7 2
          1 8 2 2 8 2
          3 8 2 4 8 2
          5 8 2 6 8 2
          7 8 2 8 8 2
          9 8 2 1 9 2
          2 9 2 3 9 2
          4 9 2 5 9 2
          6 9 2 7 9 2
          8 9 2 9 9 2
          1 1 3 2 1 3
          3 1 3 4 1 3
          5 1 3 6 1 3
          7 1 3 8 1 3
          9 1 3 1 2 3
          2 2 3 3 2 3
          4 2 3 5 2 3
          6 2 3 7 2 3
          8 2 3 9 2 3
          1 3 3 2 3 3
          3 3 3 4 3 3
          5 3 3 6 3 3
          7 3 3 8 3 3
          9 3 3 1 4 3
          2 4 3 3 4 3
          4 4 3 5 4 3
          6 4 3 7 4 3
          8 4 3 9 4 3
          1 5 3 2 5 3
          3 5 3 4 5 3
          5 5 3 6 5 3
          7 5 3 8 5 3
          9 5 3 1 6 3
          2 6 3 3 6 3
          4 6 3 5 6 3
          6 6 3 7 6 3
          8 6 3 9 6 3
          1 7 3 2 7 3
          3 7 3 4 7 3
          5 7 3 6 5 4
          7 5 4 8 5 4
          9 5 4 1 6 4
          2 6 4 3 6 4
          4 6 4 5 6 4
          6 6 4 7 6 4
          8 6 4 9 6 4
          1 7 4 2 7 4
          3 7 4 4 7 4
          5 7 4 6 7 4
          7 7 4 8 7 4
          9 7 4 1 8 4
          2 8 4 3 8 4
          4 8 4 5 8 4
          6 8 4 7 8 4
          8 8 4 9 8 4
          1 9 4 2 9 4
          3 9 4 4 9 4
          5 9 4 6 9 4
          7 9 4 8 9 4
          9 9 4 1 1 5
          2 1 5 3 1 5
          4 1 5 5 1 5
          6 1 5 7 1 5
          8 1 5 9 1 5
          1 2 5 2 2 5
          3 2 5 4 2 5
          5 2 5 6 2 5
          7 2 5 8 2 5
          9 2 5 1 3 5
          2 3 5 3 3 5
          4 3 5 5 3 5
          6 3 5 7 3 5
          8 3 5 9 3 5
          1 4 5 2 4 5
          3 4 5 4 4 5
          5 4 5 6 4 5
          7 4 5 8 4 5
          9 4 5 1 5 5
          2 5 5 3 5 5
          4 5 5 5 5 5
          6 5 5 7 5 5
          8 5 5 9 5 5
          1 6 5 2 6 5
          3 6 5 4 6 5
          5 6 5 6 6 5
          7 6 5 8 6 5
          9 6 5 1 7 5
          2 7 5 3 7 5
          4 7 5 5 7 5
          6 7 5 7 7 5
          8 7 5 9 7 5
          1 8 5 2 8 5
          3 8 5 4 8 5
          5 8 5 6 8 5
          7 8 5 8 8 5
          9 8 5 1 9 5
          2 9 5 3 9 5
          4 9 5 5 9 5
          6 9 5 7 9 5
          8 9 5 9 9 5
          1 1 6 2 1 6
          3 1 6 4 1 6
          5 1 6 6 1 6
          7 1 6 8 1 6
          9 1 6 1 2 6
          2 2 6 3 2 6
          4 2 6 5 2 6
          6 2 6 7 2 6
          8 2 6 9 2 6
          8 2 7 9 2 7
          1 3 7 2 3 7
          3 3 7 4 3 7
          5 3 7 6 3 7
          7 3 7 8 3 7
          9 3 7 1 4 7
          2 4 7 3 4 7
          4 4 7 5 4 7
          6 4 7 7 4 7
          8 4 7 9 4 7
          1 5 7 2 5 7
          3 5 7 4 5 7
          5 5 7 6 5 7
          7 5 7 8 5 7
          9 5 7 1 6 7
          2 6 7 3 6 7
          4 6 7 5 6 7
          6 6 7 7 6 7
          8 6 7 9 6 7
          1 7 7 2 7 7
          3 7 7 4 7 7
          5 7 7 6 7 7
          7 7 7 8 7 7
          9 7 7 1 8 7
          2 8 7 3 8 7
          4 8 7 5 8 7
          6 8 7 7 8 7
          8 8 7 9 8 7
          1 9 7 2 9 7
          3 9 7 4 9 7
          5 9 7 6 9 7
          7 9 7 8 9 7
          9 9 7 1 1 8
          2 1 8 3 1 8
          4 1 8 5 1 8
          6 1 8 7 1 8
          8 1 8 9 1 8
          1 2 8 2 2 8
          3 2 8 4 2 8
          5 2 8 6 2 8
          7 2 8 8 2 8
          9 2 8 1 3 8
          2 3 8 3 3 8
          4 3 8 5 3 8
          6 3 8 7 3 8
          8 3 8 9 3 8
          1 4 8 2 4 8
          3 4 8 4 4 8
          5 4 8 6 4 8
          7 4 8 8 4 8
          9 4 8 1 5 8
          2 5 8 3 5 8
          4 5 8 5 5 8
          6 5 8 7 5 8
          8 5 8 9 5 8
          1 6 8 2 6 8
          3 6 8 4 6 8
          5 6 8 6 6 8
          7 6 8 8 6 8
          9 6 8 1 7 8
          2 7 8 3 7 8
          4 7 8 5 7 8
          6 7 8 7 7 8
          8 7 8 9 7 8
          1 8 8 2 8 8
          3 8 8 4 8 8
          5 8 8 6 8 8
          7 8 8 8 8 8
          9 8 8 1 9 8
          2 9 8 3 9 8
          4 9 8 5 9 8
          6 9 8 7 9 8
          8 9 8 9 9 8
          1 1 9 2 1 9
          3 1 9 4 1 9
          5 1 9 6 1 9
          7 1 9 8 1 9
          9 1 9 1 2 9
          2 2 9 3 2 9
          4 2 9 5 2 9
          6 2 9 7 2 9
          8 2 9 9 2 9
          1 3 9 2 3 9
          3 3 9 4 3 9
          5 3 9 6 3 9
          7 3 9 8 3 9
          9 3 9 1 4 9
          2 4 9 3 4 9
          4 4 9 5 4 9
          6 4 9 7 4 9
          8 4 9 9 4 9
          1 5 9 2 5 9
          3 5 9 4 5 9
          5 5 9 6 5 9
          7 5 9 8 5 9
          9 5 9 1 6 9
          2 6 9 3 6 9
          4 6 9 5 6 9
          6 6 9 7 6 9
          8 6 9 9 6 9
          1 7 9 2 7 9
          3 7 9 4 7 9
          5 7 9 6 7 9
          7 7 9 8 7 9
          9 7 9 1 8 9
          2 8 9 3 8 9
          4 8 9 5 8 9
          6 8 9 7 8 9
          8 8 9 9 8 9
          1 9 9 2 9 9
          3 9 9 4 9 9
          5 9 9 6 9 9
          7 9 9 8 9 9
          9 9 9
        </DataArray>
      </Points>
      <Cells>
        <DataArray type="Int64" Name="connectivity" format="ascii" RangeMin="0" RangeMax="1330">
          52 744 142 3 348 11
          3 348 98 52 744 542
          142 745 143 11 349 7
          11 349 348 142 745 744
          143 746 144 7 350 6
          7 350 349 143 746 745
          144 747 145 6 351 14
          6 351 350 144 747 746
          145 748 146 14 352 15
          14 352 351 145 748 747
          146 749 147 15 353 16
          15 353 352 146 749 748
          147 750 148 16 354 17
          16 354 353 147 750 749
          148 751 149 17 355 18
          17 355 354 148 751 750
          149 752 150 18 356 19
          18 356 355 149 752 751
          150 316 12 19 107 4
          19 107 356 150 316 752
          51 753 151 52 744 142
          52 744 542 51 753 543
          151 754 152 142 745 143
          142 745 744 151 754 753
          152 755 153 143 746 144
          143 746 745 152 755 754
          153 756 154 144 747 145
          144 747 746 153 756 755
          154 757 79 145 748 146
          145 748 747 154 757 756
          79 758 80 146 749 147
          146 749 748 79 758 757
          80 759 81 147 750 148
          147 750 749 80 759 758
          81 760 82 148 751 149
          148 751 750 81 760 759
          82 761 83 149 752 150
          149 752 751 82 761 760
          83 317 23 150 316 12
          150 316 752 83 317 761
          50 762 84 51 753 151
          51 753 543 50 762 544
          84 763 85 151 754 152
          151 754 753 84 763 762
          85 764 86 152 755 153
          152 755 754 85 764 763
          86 765 87 153 756 154
          153 756 755 86 765 764
          87 766 88 154 757 79
          154 757 756 87 766 765
          88 767 175 79 758 80
          79 758 757 88 767 766
          175 768 176 80 759 81
          80 759 758 175 768 767
          176 769 177 81 760 82
          81 760 759 176 769 768
          177 770 178 82 761 83
          82 761 760 177 770 769
          178 318 24 83 317 23
          83 317 761 178 318 770
          49 771 179 50 762 84
          50 762 544 49 771 545
          179 772 180 84 763 85
          84 763 762 179 772 771
          180 773 181 85 764 86
          85 764 763 180 773 772
          181 774 182 86 765 87
          86 765 764 181 774 773
          182 775 183 87 766 88
          87 766 765 182 775 774
          183 776 184 88 767 175
          88 767 766 183 776 775
          184 777 185 175 768 176
          175 768 767 184 777 776
          185 778 186 176 769 177
          176 769 768 185 778 777
          186 779 187 177 770 178
          177 770 769 186 779 778
          187 319 25 178 318 24
          178 318 770 187 319 779
          48 780 188 49 771 179
          49 771 545 48 780 546
          188 781 189 179 772 180
          179 772 771 188 781 780
          189 782 190 180 773 181
          180 773 772 189 782 781
          190 783 191 181 774 182
          181 774 773 190 783 782
          191 784 192 182 775 183
          182 775 774 191 784 783
          192 785 193 183 776 184
          183 776 775 192 785 784
          193 786 194 184 777 185
          184 777 776 193 786 785
          194 787 195 185 778 186
          185 778 777 194 787 786
          195 788 196 186 779 187
          186 779 778 195 788 787
          196 320 26 187 319 25
          187 319 779 196 320 788
          47 789 197 48 780 188
          48 780 546 47 789 547
          197 790 198 188 781 189
          188 781 780 197 790 789
          198 791 199 189 782 190
          189 782 781 198 791 790
          199 792 200 190 783 191
          190 783 782 199 792 791
          200 793 201 191 784 192
          191 784 783 200 793 792
          201 794 202 192 785 193
          192 785 784 201 794 793
          202 795 203 193 786 194
          193 786 785 202 795 794
          203 796 204 194 787 195
          194 787 786 203 796 795
          204 797 205 195 788 196
          195 788 787 204 797 796
          205 321 27 196 320 26
          196 320 788 205 321 797
          46 798 206 47 789 197
          47 789 547 46 798 548
          206 799 207 197 790 198
          197 790 789 206 799 798
          207 800 208 198 791 199
          198 791 790 207 800 799
          208 801 209 199 792 200
          199 792 791 208 801 800
          209 802 210 200 793 201
          200 793 792 209 802 801
          210 803 211 201 794 202
          201 794 793 210 803 802
          211 804 212 202 795 203
          202 795 794 211 804 803
          212 805 213 203 796 204
          203 796 795 212 805 804
          213 806 214 204 797 205
          204 797 796 213 806 805
          214 322 13 205 321 27
          205 321 797 214 322 806
          45 807 215 46 798 206
          46 798 548 45 807 549
          215 808 216 206 799 207
          206 799 798 215 808 807
          216 809 217 207 800 208
          207 800 799 216 809 808
          217 810 218 208 801 209
          208 801 800 217 810 809
          218 811 219 209 802 210
          209 802 801 218 811 810
          219 812 220 210 803 211
          210 803 802 219 812 811
          220 813 221 211 804 212
          211 804 803 220 813 812
          221 814 222 212 805 213
          212 805 804 221 814 813
          222 815 223 213 806 214
          213 806 805 222 815 814
          223 323 31 214 322 13
          214 322 806 223 323 815
          22 816 224 45 807 215
          45 807 549 22 816 550
          224 817 225 215 808 216
          215 808 807 224 817 816
          225 818 226 216 809 217
          216 809 808 225 818 817
          226 819 227 217 810 218
          217 810 809 226 819 818
          227 820 228 218 811 219
          218 811 810 227 820 819
          228 821 229 219 812 220
          219 812 811 228 821 820
          229 822 230 220 813 221
          220 813 812 229 822 821
          230 823 231 221 814 222
          221 814 813 230 823 822
          231 824 232 222 815 223
          222 815 814 231 824 823
          232 324 32 223 323 31
          223 323 815 232 324 824
          2 429 21 22 816 224
          22 816 550 2 429 133
          21 430 20 224 817 225
          224 817 816 21 430 429
          20 431 39 225 818 226
          225 818 817 20 431 430
          39 432 38 226 819 227
          226 819 818 39 432 431
          38 433 37 227 820 228
          227 820 819 38 433 432
          37 434 36 228 821 229
          228 821 820 37 434 433
          36 435 35 229 822 230
          229 822 821 36 435 434
          35 436 34 230 823 231
          230 823 822 35 436 435
          34 437 33 231 824 232
          231 824 823 34 437 436
          33 57 1 232 324 32
          232 324 824 33 57 437
          542 825 744 98 357 348
          98 357 99 542 825 551
          744 826 745 348 358 349
          348 358 357 744 826 825
          745 827 746 349 359 350
          349 359 358 745 827 826
          746 828 747 350 360 351
          350 360 359 746 828 827
          747 829 748 351 361 352
          351 361 360 747 829 828