<?xml version="1.0"?>
<VTKFile type="UnstructuredGrid" version="0.1" byte_order="LittleEndian" header_type="UInt32" compressor="vtkZLibDataCompressor">
  <UnstructuredGrid>
    <Piece NumberOfPoints="780" NumberOfCells="1472">
      <PointData>
      </PointData>
      <CellData>
        <DataArray type="Float64" Name="Partition" format="ascii" RangeMin="3" RangeMax="3">
          3 3 3 3 3 3
          3 3 3 3 3 3
          3 3 3 3 3 3
          3 3 3 3 3 3
          3 3 3 3 3 3
          3 3 3 3 3 3
          3 3 3 3 3 3
          3 3 3 3 3 3
          3 3 3 3 3 3
          3 3 3 3 3 3
          3 3 3 3 3 3
          3 3 3 3 3 3
          3 3 3 3 3 3
          3 3 3 3 3 3
          3 3 3 3 3 3
          3 3 3 3 3 3
          3 3 3 3 3 3
          3 3 3 3 3 3
          3 3 3 3 3 3
          3 3 3 3 3 3
          3 3 3 3 3 3
          3 3 3 3 3 3
          3 3 3 3 3 3
          3 3 3 3 3 3
          3 3 3 3 3 3
          3 3 3 3 3 3
          3 3 3 3 3 3
          3 3 3 3 3 3
          3 3 3 3 3 3
          3 3 3 3 3 3
          3 3 3 3 3 3
          3 3 3 3 3 3
          3 3 3 3 3 3
          3 3 3 3 3 3
          3 3 3 3 3 3
          3 3 3 3 3 3
          3 3 3 3 3 3
          3 3 3 3 3 3
          3 3 3 3 3 3
          3 3 3 3 3 3
          3 3 3 3 3 3
          3 3 3 3 3 3
          3 3 3 3 3 3
          3 3 3 3 3 3
          3 3 3 3 3 3
          3 3 3 3 3 3
          3 3 3 3 3 3
          3 3 3 3 3 3
          3 3 3 3 3 3
          3 3 3 3 3 3
          3 3 3 3 3 3
          3 3 3 3 3 3
          3 3 3 3 3 3
          3 3 3 3 3 3
          3 3 3 3 3 3
          3 3 3 3 3 3
          3 3 3 3 3 3
          3 3 3 3 3 3
          3 3 3 3 3 3
          3 3 3 3 3 3
          3 3 3 3 3 3
          3 3 3 3 3 3
          3 3 3 3 3 3
          3 3 3 3 3 3
          3 3 3 3 3 3
          3 3 3 3 3 3
          3 3 3 3 3 3
          3 3 3 3 3 3
          3 3 3 3 3 3
          3 3 3 3 3 3
          3 3 3 3 3 3
          3 3 3 3 3 3
          3 3 3 3 3 3
          3 3 3 3 3 3
          3 3 3 3 3 3
          3 3 3 3 3 3
          3 3 3 3 3 3
          3 3 3 3 3 3
          3 3 3 3 3 3
          3 3 3 3 3 3
          3 3 3 3 3 3
          3 3 3 3 3 3
          3 3 3 3 3 3
          3 3 3 3 3 3
          3 3 3 3 3 3
          3 3 3 3 3 3
          3 3 3 3 3 3
          3 3 3 3 3 3
          3 3 3 3 3 3
          3 3 3 3 3 3
          3 3 3 3 3 3
          3 3 3 3 3 3
          3 3 3 3 3 3
          3 3 3 3 3 3
          3 3 3 3 3 3
          3 3 3 3 3 3
          3 3 3 3 3 3
          3 3 3 3 3 3
          3 3 3 3 3 3
          3 3 3 3 3 3
          3 3 3 3 3 3
          3 3 3 3 3 3
          3 3 3 3 3 3
          3 3 3 3 3 3
          3 3 3 3 3 3
          3 3 3 3 3 3
          3 3 3 3 3 3
          3 3 3 3 3 3
          3 3 3 3 3 3
          3 3 3 3 3 3
          3 3 3 3 3 3
          3 3 3 3 3 3
          3 3 3 3 3 3
          3 3 3 3 3 3
          3 3 3 3 3 3
          3 3 3 3 3 3
          3 3 3 3 3 3
          3 3 3 3 3 3
          3 3 3 3 3 3
          3 3 3 3 3 3
          3 3 3 3 3 3
          3 3 3 3 3 3
          3 3 3 3 3 3
          3 3 3 3 3 3
          3 3 3 3 3 3
          3 3 3 3 3 3
          3 3 3 3 3 3
          3 3 3 3 3 3
          3 3 3 3 3 3
          3 3 3 3 3 3
          3 3 3 3 3 3
          3 3 3 3 3 3
          3 3 3 3 3 3
          3 3 3 3 3 3
          3 3 3 3 3 3
          3 3 3 3 3 3
          3 3 3 3 3 3
          3 3 3 3 3 3
          3 3 3 3 3 3
          3 3 3 3 3 3
          3 3 3 3 3 3
          3 3 3 3 3 3
          3 3 3 3 3 3
          3 3 3 3 3 3
          3 3 3 3 3 3
          3 3 3 3 3 3
          3 3 3 3 3 3
          3 3 3 3 3 3
          3 3 3 3 3 3
          3 3 3 3 3 3
          3 3 3 3 3 3
          3 3 3 3 3 3
          3 3 3 3 3 3
          3 3 3 3 3 3
          3 3 3 3 3 3
          3 3 3 3 3 3
          3 3 3 3 3 3
          3 3 3 3 3 3
          3 3 3 3 3 3
          3 3 3 3 3 3
          3 3 3 3 3 3
          3 3 3 3 3 3
          3 3 3 3 3 3
          3 3 3 3 3 3
          3 3 3 3 3 3
          3 3 3 3 3 3
          3 3 3 3 3 3
          3 3 3 3 3 3
          3 3 3 3 3 3
          3 3 3 3 3 3
          3 3 3 3 3 3
          3 3 3 3 3 3
          3 3 3 3 3 3
          3 3 3 3 3 3
          3 3 3 3 3 3
          3 3 3 3 3 3
          3 3 3 3 3 3
          3 3 3 3 3 3
          3 3 3 3 3 3
          3 3 3 3 3 3
          3 3 3 3 3 3
          3 3 3 3 3 3
          3 3 3 3 3 3
          3 3 3 3 3 3
          3 3 3 3 3 3
          3 3 3 3 3 3
          3 3 3 3 3 3
          3 3 3 3 3 3
          3 3 3 3 3 3
          3 3 3 3 3 3
          3 3 3 3 3 3
          3 3 3 3 3 3
          3 3 3 3 3 3
          3 3 3 3 3 3
          3 3 3 3 3 3
          3 3 3 3 3 3
          3 3 3 3 3 3
          3 3 3 3 3 3
          3 3 3 3 3 3
          3 3 3 3 3 3
          3 3 3 3 3 3
          3 3 3 3 3 3
          3 3 3 3 3 3
          3 3 3 3 3 3
          3 3 3 3 3 3
          3 3 3 3 3 3
          3 3 3 3 3 3
          3 3 3 3 3 3
          3 3 3 3 3 3
          3 3 3 3 3 3
          3 3 3 3 3 3
          3 3 3 3 3 3
          3 3 3 3 3 3
          3 3 3 3 3 3
          3 3 3 3 3 3
          3 3 3 3 3 3
          3 3 3 3 3 3
          3 3 3 3 3 3
          3 3 3 3 3 3
          3 3 3 3 3 3
          3 3 3 3 3 3
          3 3 3 3 3 3
          3 3 3 3 3 3
          3 3 3 3 3 3
          3 3 3 3 3 3
          3 3 3 3 3 3
          3 3 3 3 3 3
          3 3 3 3 3 3
          3 3 3 3 3 3
          3 3 3 3 3 3
          3 3 3 3 3 3
          3 3 3 3 3 3
          3 3 3 3 3 3
          3 3 3 3 3 3
          3 3 3 3 3 3
          3 3 3 3 3 3
          3 3 3 3 3 3
          3 3 3 3 3 3
          3 3 3 3 3 3
          3 3 3 3 3 3
          3 3 3 3 3 3
          3 3 3 3 3 3
          3 3 3 3 3 3
          3 3 3 3 3 3
          3 3 3 3 3 3
          3 3
        </DataArray>
      </CellData>
      <Points>
        <DataArray type="Float32" Name="Points" NumberOfComponents="3" format="ascii" RangeMin="419.26852417" RangeMax="1151.8293496">
          320.76776123 611.7713623 -0 320.65811157 603.17669678 -0
          321.48406982 667.9206543 0 320.88052368 620.61071777 0
          220.28826904 608.11419678 100 409.64202881 917.91229248 100
          116.57996368 602.26135254 100 500.71331787 920.95080566 100
          370.06640625 533.15350342 0 83.001075745 658.66485596 0
          104.429039 658.90258789 0 205.57325745 660.02471924 -0
          201.48278809 1000 9.3560400009 208.64428711 918.28424072 100
          201.48278809 1000 100 457.51248169 701.30767822 100
          356.79675293 755.88745117 0 357.89892578 643.8157959 0
          177.12638855 875.50708008 100 172.89363098 827.10638428 100
          164.34292603 729.33068848 100 504.47341919 1000 27.521799088
          371.0166626 989.85980225 100 504.47341919 1000 100
          504.47341919 1000 50.447299957 285.74688721 941.87176514 0
          427.36645508 959.19909668 0 60.167942047 828.68695068 7.2512997719e-16
          63.134906769 894.93804932 7.2512997719e-16 506.95025635 944.75976562 100
          120.85682678 731.85510254 100 122.99228668 844.13287354 100
          0 938.28143311 -3.1554400474e-30 436.6534729 768.25726318 100
          486.32022095 595.88208008 0 438.17462158 799.16015625 100
          431.13458252 895.90332031 100 126.67494202 590.28204346 100
          103.23168945 745.83514404 0 93.421440125 817.94189453 0
          88.4504776 854.47918701 -1.5623600036e-31 385.98345947 705.60321045 100
          426.1628418 703.19030762 100 321.18231201 644.26568604 0
          523.92614746 568.27282715 -3.5527100789e-15 404.67202759 837.29211426 0
          262.83093262 831.44537354 -0 109.79189301 819.58074951 0
          32.775245667 811.8704834 3.1554400474e-30 12.764995575 809.86724854 7.1054298987e-15
          -2.9662057841e-06 808.58929443 0 -2.9662057841e-06 808.58929443 73.693397522
          140.5057373 978.36730957 100 0 957.11022949 100
          2.842170943e-14 957.11022949 44.699901581 300.73916626 699.26080322 100
          272.45056152 703.30389404 100 370.87905884 689.23614502 100
          -1.4210854715e-14 938.28143311 62.634498596 -1.4210854715e-14 938.28143311 6.171860218
          75.98122406 1000 7.5981202126 75.98122406 1000 0
          75.98122406 1000 60.13010025 80.336585999 919.66339111 0
          81.788711548 892.87823486 0 0 1000 0
          0 1000 100 314.07080078 945.33721924 0
          342.39471436 948.80267334 0 370.71862793 952.26818848 0
          399.0425415 955.73364258 0 61.651424408 861.8125 0
          542.19903564 942.28424072 100 121.39069366 759.92456055 100
          475.76913452 733.0569458 100 426.11752319 704.98339844 100
          429.26016235 580.66168213 100 307.29556274 887.88659668 100
          296.05145264 771.8684082 100 15.417598724 783.18237305 -2.8766400588e-30
          377.67654419 587.93304443 -0 488.8399353 596.06646729 1.5551399809e-29
          523.12817383 598.57519531 1.6920699888e-29 429.40646362 675.61816406 0
          414.17346191 779.81689453 0 412.57723999 790.73553467 1.2937700721e-29
          518.10180664 568.13043213 1.6655100607e-29 519.36688232 539.00274658 0
          291.19915771 832.61474609 -0 319.56738281 833.78405762 -0
          347.93557739 834.95343018 0 376.30380249 836.1227417 -0
          63.098342896 814.90618896 2.384999985e-30 -2.9662057841e-06 808.58929443 36.846698761
          151.1493988 604.21228027 100 185.71884155 606.16326904 100
          439.99911499 918.92510986 100 470.35623169 919.93798828 100
          337.47784424 533.49432373 0 138.14378357 659.27661133 0
          171.85852051 659.6506958 -0 404.38085938 992.39483643 100
          437.74505615 994.92993164 100 471.10922241 997.46496582 100
          504.47341919 1000 75.223602295 435.82794189 831.40789795 100
          433.48126221 863.65557861 100 206.25712585 945.52282715 100
          203.86994934 972.76141357 100 201.48278809 1000 69.785301208
          201.48278809 1000 39.570701599 175.01000977 851.30670166 100
          170.043396 794.51446533 100 167.19316101 761.92260742 100
          121.92456055 787.99395752 100 122.4584198 816.06341553 100
          304.48452759 858.88208008 100 301.67352295 829.87750244 100
          298.86248779 800.87298584 100 404.83746338 589.92028809 0
          431.99838257 591.90759277 0 459.15930176 593.89483643 0
          0 906.17791748 -2.3743500062e-30 421.78994751 727.7175293 0
          122.95614624 520.82128906 100 124.81555176 555.55169678 100
          98.326560974 781.88848877 -0 357.07229614 727.86956787 -0
          357.34783936 699.85162354 0 357.62338257 671.83374023 0
          0 463.74575806 74.985397339 0 916.41619873 23.538200378
          0 841.06945801 68.869102478 0 733.84387207 25.625099182
          0 732.55841064 74.981498718 0 907.92059326 49.196800232
          0 673.66864014 25.266300201 0 673.13696289 74.802497864
          0 613.78631592 25.26709938 0 613.30426025 74.804603577
          0 553.90447998 25.265800476 0 553.46936035 74.803199768
          0 494.03414917 25.345399857 0 493.64254761 74.85849762
          0 464.11975098 25.51309967 0 434.13442993 25.190299988
          0 862.815979 22.507499695 0 766.13574219 28.140100479
          0 758.109375 76.286201477 0 778.86236572 59.993499756
          0 628.50170898 49.992599487 0 688.3560791 49.983501434
          0 478.91635132 50.381801605 0 718.32672119 50.322200775
          0 448.97085571 50.250701904 0 508.78359985 49.974700928
          0 568.64422607 49.991500854 0 748.11480713 51.76720047
          0 658.47772217 50.215301514 0 598.61651611 50.216598511
          0 538.75378418 50.21049881 0 871.29150391 46.777500153
          0 844.0645752 35.722400665 112.40458679 974.11590576 100
          84.303443909 969.86450195 100 56.202293396 965.61309814 100
          28.101146698 961.3616333 100 -9.491548667e-07 957.11022949 72.349998474
          335.80911255 694.24847412 100 -1.4210854715e-14 938.28143311 34.403198242
          6.3824977875 874.07434082 3.5527100789e-15 9.5737466812 841.97076416 5.3290700947e-15
          75.98122406 1000 33.86410141 77.433013916 973.22113037 -0
          78.884796143 946.44226074 -0 556.84490967 1000 -0
          526.79095459 1000 -0 496.73696899 1000 -0
          466.6829834 1000 -0 436.6289978 1000 -0
          406.57501221 1000 -0 376.52105713 1000 -0
          346.46707153 1000 -0 316.41308594 1000 -0
          286.35910034 1000 -0 256.30511475 1000 -0
          226.25112915 1000 -0 196.19715881 1000 -0
          166.14317322 1000 -0 136.08918762 1000 -0
          106.03520966 1000 -0 50.654148102 1000 -0
          25.327074051 1000 -0 474.17434692 1000 100
          443.87530518 1000 100 413.57623291 1000 100
          383.27716064 1000 100 352.97808838 1000 100
          322.67904663 1000 100 292.37997437 1000 100
          262.0809021 1000 100 231.78184509 1000 100
          533.62207031 1000 100 562.77069092 1000 100
          172.69953918 1000 100 143.91627502 1000 100
          115.13301849 1000 100 86.349769592 1000 100
          57.566509247 1000 100 28.783254623 1000 100
          -0 1000 66.666702271 -0 1000 33.333301544
          97.13433075 506.44476318 100 521.93713379 971.48242188 100
          25.420724869 762.57525635 100 0 969.14068604 -1.5777200237e-30
          0 927.20056152 100 0 897.29083252 100
          0 867.38116455 100 0 837.47143555 100
          0 807.56176758 100 0 777.65203857 100
          0 747.74237061 100 0 717.83270264 100
          0 687.92297363 100 0 658.01330566 100
          0 628.10357666 100 0 598.19390869 100
          0 568.28417969 100 0 538.37451172 100
          0 508.46481323 100 0 478.55511475 100
          0 448.64541626 100 0 873.43536377 -1.5777200237e-30
          0 841.0123291 -7.8886001185e-31 0 778.64154053 0
          0 748.69378662 0 0 718.74603271 0
          0 688.79827881 0 0 658.8505249 0
          0 628.902771 0 0 598.95501709 0
          0 569.00726318 0 0 539.05950928 0
          0 509.11178589 0 0 479.16403198 0
          0 449.21627808 0 0 419.26852417 0
          466.41360474 771.90008545 100 496.17376709 775.54284668 100
          426.93716431 672.5581665 100 427.71148682 641.92602539 100
          428.48583984 611.29382324 100 486.76831055 834.21722412 100
          479.05227661 945.63287354 100 367.48791504 958.45349121 100
          483.41854858 701.14434814 100 52.875045776 596.63580322 100
          376.9576416 739.45013428 100 397.91781616 626.20220947 100
          350.26724243 666.86737061 100 249.79701233 834.28643799 100
          49.425216675 747.21392822 100 250.53347778 864.80865479 100
          526.28143311 918.18341064 100 288.59225464 942.99267578 100
          234.6191864 936.68389893 100 322.16793823 947.63903809 100
          87.326026917 473.14358521 100 122.07666779 924.32733154 100
          126.30957031 872.62322998 100 84.224586487 606.46936035 100
          51.050056458 539.02935791 100 149.2744751 537.27233887 100
          425.59820557 701.66784668 0 421.959198 726.55987549 0
          417.98171997 753.76721191 -0 0 933.41693115 5.2366700172
          126.71640778 735.86102295 1.4484999986e-30 268.86209106 674.07794189 6.969470271e-30
          158.69564819 802.04736328 2.8632900165e-30 510.33728027 921.90960693 1.7109200282e-29
          162.87023926 889.87200928 3.2187401361e-30 77.368247986 706.3838501 -5.7801097888e-31
          508.48602295 625.31829834 1.6395999835e-29 240.66192627 919.65118408 6.3773197878e-30
          292.85461426 780.69891357 8.1537599527e-30 437.52960205 534.18914795 1.3376999323e-29
          210.21606445 921.33282471 5.1698798263e-30 77.948509216 494.152771 -1.0126099543e-30
          78.059867859 524.31530762 -9.4313099707e-31 169.08859253 714.17700195 3.0872000612e-30
          445.42684937 503.11694336 1.3624100649e-29 107.19889069 604.15966797 3.8813100189e-31
          217.06202698 687.59399414 4.9381400488e-30 299.00527954 727.6986084 8.2841303636e-30
          264.9803772 614.20300293 6.6859402813e-30 489.53335571 653.07226562 1.5701900702e-29
          178.35980225 921.33776855 3.9027300181e-30 478.72473145 924.61480713 1.5857600101e-29
          540.35656738 919.64733887 1.8298400332e-29 78.941978455 585.09204102 -7.7697802091e-31
          402.33859253 534.2467041 1.1977299643e-29 78.464538574 554.93933105 -8.609940346e-31
          140.54649353 607.97314453 1.7228400675e-30 535.40008545 865.34173584 1.7984199908e-29
          263.34835815 779.32543945 6.9771100439e-30 149.11312866 776.90655518 2.4279000745e-30
          256.47454834 889.97857666 6.942319925e-30 103.98695374 509.21188354 5.5613201975e-32
          431.60409546 898.93408203 1.3927800241e-29 217.77742004 803.980896 5.2175898506e-30
          466.19174194 675.71905518 1.4822299908e-29 214.36485291 855.42724609 5.1927901172e-30
          245.46548462 585.44952393 5.8476800253e-30 128.41271973 584.57336426 1.1897299636e-30
          173.58706665 828.27032471 3.5121800134e-30 537.11218262 1000 34.095199585
          541.33135986 1000 69.710700989 301.90667725 1000 25.549800873
          114.08598328 1000 24.156900406 454.19552612 1000 27.015600204
          229.09136963 1000 59.330299377 22.975833893 1000 42.640701294
          306.00210571 1000 75.002700806 483.43026733 1000 27.344200134
          453.65155029 1000 76.618400574 366.97817993 1000 74.699302673
          362.73681641 1000 25.248600006 427.47592163 1000 74.88760376
          423.69161987 1000 25.366199493 332.55767822 1000 25.291000366
          397.26971436 1000 74.716003418 393.11727905 1000 25.16740036
          276.40774536 1000 75.052696228 336.52120972 1000 74.828903198
          233.86897278 1000 25.891799927 270.9133606 1000 25.46559906
          181.41027832 1000 22.553699493 475.00140381 1000 59.444999695
          251.1361084 1000 76.392601013 126.21320343 1000 74.493202209
          101.53617096 1000 76.467796326 39.412193298 1000 67.819900513
          151.71916199 1000 75.39150238 104.88088226 1000 52.017101288
          151.50308228 1000 25.350000381 50.7539711 1000 30.47369957
          288.52288818 1000 50.516101837 258.59332275 1000 51.419200897
          379.98086548 1000 49.980998993 319.00250244 1000 50.333301544
          410.98727417 1000 49.794998169 173.76402283 1000 55.693099976
          441.36257935 1000 51.572101593 349.97631836 1000 49.852500916
          136.8505249 1000 50.122200012 0 910.89648438 76.853996277
          0 979.18499756 84.931800842 0 703.02801514 74.75
          0 882.74560547 73.920402527 0 583.3793335 74.757102966
          0 523.54498291 74.754096985 0 643.21295166 74.757102966
          0 703.63116455 25.313100815 0 583.85449219 25.307600021
          0 889.6729126 24.555799484 0 643.73693848 25.307600021
          0 523.97161865 25.305799484 25.844467163 852.36651611 100
          144.63652039 777.19281006 100 461.13690186 847.30621338 100
          126.31356812 952.56005859 100 507.86035156 809.52850342 100
          356.44696045 715.02655029 100 283.33554077 676.20379639 100
          165.84321594 631.21289062 100 147.97625732 836.19226074 100
          133.47306824 629.08502197 100 395.7802124 965.11071777 100
          149.70951843 863.50469971 100 470.06237793 808.36987305 100
          449.54144287 944.66339111 100 408.1395874 727.45874023 100
          459.45004272 666.71594238 100 274.45504761 817.66125488 100
          440.64160156 736.23529053 100 402.03353882 595.35852051 100
          427.09735107 968.54248047 100 277.02450562 846.9486084 100
          552.08605957 971.81970215 100 556.81799316 915.7232666 100
          271.60647583 788.33422852 100 410.4263916 815.36932373 100
          340.73654175 974.26135254 100 238.4493866 968.6763916 100
          307.21704102 973.53582764 100 275.02890015 973.05657959 100
          26.24757576 642.68560791 100 490.08465576 971.93414307 100
          485.56600952 896.03747559 100 457.96743774 886.1126709 100
          179.88337708 928.52581787 100 175.10998535 962.36956787 100
          24.445695877 909.2277832 100 26.041250229 882.55645752 100
          100.38645172 576.23400879 100 25.820581436 702.81335449 100
          25.426689148 792.44769287 100 26.063049316 583.13616943 100
          25.512720108 732.6895752 100 26.304384232 612.73999023 100
          26.06952095 672.77270508 100 26.316818237 463.93817139 100
          25.859169006 553.44091797 100 99.322563171 539.85168457 100
          26.108257294 493.76504517 100 25.847063065 523.57250977 100
          71.738853455 939.38726807 100 101.47181702 945.87786865 100
          419.4352417 942.36486816 100 146.54692078 807.49163818 100
          95.942810059 746.03704834 100 191.74354553 744.08001709 100
          25.57635498 822.35491943 100 96.836280823 803.47894287 100
          201.83221436 581.29754639 100 324.63641357 722.15490723 100
          150.66087341 570.87164307 100 401.63040161 882.64953613 100
          454.84487915 629.24676514 100 399.71533203 686.47998047 100
          410.34790039 785.17095947 100 458.63201904 970.68109131 100
          279.75027466 876.52758789 100 53.806594849 625.9465332 100
          52.124233246 867.73974609 100 315.2878418 671.7197876 100
          173.6181488 582.72814941 100 292.30001831 733.48986816 100
          198.99247742 860.27850342 100 142.86569214 745.75476074 100
          252.96713257 683.22271729 100 196.92475891 634.23742676 100
          374.16220093 910.75939941 100 199.08703613 836.30841064 100
          390.11730957 660.59448242 100 403.39318848 565.09844971 100
          345.20318604 739.30297852 100 389.26196289 937.78161621 100
          39.794845581 934.62219238 100 51.250595093 568.46697998 100
          49.734928131 806.70135498 100 53.994373322 450.56195068 100
          485.46627808 866.40423584 100 234.56654358 580.83508301 100
          148.16459656 657.89849854 100 90.239181519 914.86401367 100
          196.91160583 807.2098999 100 247.47975159 804.45861816 100
          409.35189819 754.66546631 100 268.2517395 758.05957031 100
          326.53546143 812.39538574 100 329.56396484 841.33740234 100
          408.27203369 846.73413086 100 50.629295349 836.77319336 100
          105.69727325 626.42767334 100 513.17871094 887.699646 100
          186.43283081 901.2041626 100 150.93676758 899.58447266 100
          52.940322876 656.78497314 100 194.27348328 775.53900146 100
          51.919281006 687.53826904 100 53.252628326 480.69613647 100
          75.429443359 555.39404297 100 74.87387085 524.20178223 100
          51.181293488 509.34759521 100 54.615585327 903.58056641 100
          97.711769104 717.30944824 100 50.437042236 717.48712158 100
          190.5687561 712.51977539 100 98.503494263 832.78466797 100
          96.145378113 774.793396 100 49.203235626 776.9239502 100
          333.83181763 870.15423584 100 455.62692261 597.25335693 100
          323.78182983 783.06292725 100 382.7383728 803.09393311 100
          283.40750122 907.44360352 100 363.65966797 935.35186768 100
          478.9647522 644.18951416 100 119.42072296 705.86218262 100
          491.22271729 548.09484863 100 321.49346924 752.63891602 100
          540.69995117 894.59515381 100 223.48582458 850.57196045 100
          150.89868164 941.88720703 100 220.85195923 790.00817871 100
          482.30743408 615.26397705 100 178.67160034 660.17059326 100
          259.06665039 949.47454834 100 493.97061157 669.47198486 100
          355.23724365 822.72155762 100 312.45663452 918.90380859 100
          222.07327271 639.29425049 100 112.82254028 656.03833008 100
          218.28649902 759.34594727 100 73.539596558 497.95315552 100
          111.40778351 892.8815918 100 80.535987854 882.11553955 100
          234.91085815 911.66070557 100 432.11810303 545.74176025 100
          372.92019653 608.81231689 100 329.15036011 644.56555176 100
          363.58224487 637.97839355 100 254.90423584 604.29644775 100
          223.29637146 820.30627441 100 543.06982422 864.01947021 100
          179.83229065 554.32226562 100 102.07076263 862.61090088 100
          264.86459351 654.0378418 100 76.173934937 850.54797363 100
          296.10913086 648.78686523 100 376.19348145 579.88122559 100
          566.78674316 887.98852539 100 511.4057312 848.23736572 100
          338.7472229 899.05645752 100 243.87220764 713.831604 100
          541.24609375 632.2923584 100 263.48806763 731.13946533 100
          244.61392212 774.77587891 100 366.59329224 879.59002686 100
          254.20439148 894.85601807 100 71.837440491 761.17791748 100
          81.511581421 639.83679199 100 216.4236145 885.13189697 100
          217.07614136 728.32196045 100 72.987449646 731.84094238 100
          76.139671326 702.49816895 100 73.583854675 581.07366943 100
          527.48071289 548.19671631 100 216.10159302 555.43835449 100
          79.662979126 671.90252686 100 163.62767029 692.19396973 100
          73.500862122 820.02148438 100 358.50872803 851.1673584 100
          458.62307739 565.58081055 100 383.51623535 832.42797852 100
          380.78442383 773.18652344 100 352.74285889 793.53729248 100
          349.79901123 763.93395996 100 259.22683716 923.90203857 100
          131.89100647 684.58734131 100 383.68887329 858.6348877 100
          507.47637939 638.10742188 100 484.65539551 583.05664062 100
          219.14944458 692.97088623 100 207.33784485 662.19677734 100
          140.7829895 713.3850708 100 309.48300171 622.01263428 100
          341.68988037 925.90789795 100 103.18580627 689.22363281 100
          276.59155273 626.22125244 100 554.75396729 602.89086914 100
          341.78677368 617.50939941 100 267.6078186 577.61242676 100
          511.00125122 571.02844238 100 352.28887939 593.74346924 100
          377.14041138 550.21490479 100 242.19625854 745.11114502 100
          72.435775757 790.54669189 100 191.35021973 684.12554932 100
          539.63983154 575.77740479 100 516.39294434 602.72766113 100
          245.81498718 631.81488037 100 346.5289917 948.56555176 100
          323.89193726 595.15179443 100 289.54672241 599.262146 100
          235.67344666 661.14111328 100 345.39245605 566.64135742 100
          303.54534912 567.44677734 100 304.29071045 860.74578857 8.7812798384e-30
          391.61965942 713.42260742 1.1937299734e-29 299.7989502 971.93493652 8.842389746e-30
          25.980791092 464.19012451 -3.1443700879e-30 386.4513855 778.26843262 1.1871599944e-29
          39.348625183 973.79821777 -1.5136600014e-30 364.41644287 808.32739258 1.1059900218e-29
          52.219657898 924.0980835 -1.1088599959e-30 478.00216675 619.81970215 1.5171499595e-29
          417.51696777 619.21368408 1.2764299318e-29 388.0007019 742.74810791 1.185660026e-29
          328.19415283 710.28283691 9.4076298721e-30 51.925243378 781.10046387 -1.4289399607e-30
          129.64457703 795.36791992 1.6933099567e-30 347.09603882 611.01123047 9.9454202303e-30
          211.18254089 973.98413086 5.3218699293e-30 394.08474731 681.90057373 1.1967399912e-29
          110.56085205 877.62860107 1.1116000262e-30 322.29766846 559.12506104 8.847109779e-30
          154.15847778 685.63671875 2.43176999e-30 473.51339722 574.55877686 1.4895399482e-29
          188.42454529 633.76983643 3.682940034e-30 289.49575806 559.34979248 7.5428203678e-30
          294.88339233 658.42938232 7.9707898371e-30 293.96624756 631.79089355 7.8768601272e-30
          76.909736633 757.42010498 -4.8619001183e-31 385.52124023 621.97888184 1.1497500089e-29
          91.888847351 684.94244385 -4.665579984e-32 117.42079163 849.78479004 1.3244199871e-30
          445.93200684 744.11975098 1.4163899692e-29 26.085128784 584.01837158 -2.881809977e-30
          108.16993713 907.45355225 1.0808099736e-30 150.96157837 974.078125 2.926629978e-30
          180.89285278 974.04595947 4.1171499678e-30 241.21884155 973.65979004 6.5159401002e-30
          270.9442749 972.54296875 7.6959302937e-30 390.11227417 864.85968018 1.2203900348e-29
          387.59661865 925.43121338 1.2234500064e-29 455.0401001 976.39208984 1.5027099988e-29
          481.90386963 974.66204834 1.6091999317e-29 511.76153564 974.10241699 1.7278400751e-29
          541.79223633 973.94421387 1.8472600696e-29 35.445831299 888.99633789 -1.8517799488e-30
          122.32749176 971.93438721 1.783019924e-30 34.529266357 850.48291016 -1.9712899204e-30
          25.057170868 760.94519043 -2.5411500214e-30 26.199979782 732.4776001 -2.5570899129e-30
          26.007944107 554.05523682 -2.9494900517e-30 25.980770111 434.24234009 -3.2089498668e-30
          25.980846405 494.13790894 -3.0797799647e-30 25.986846924 524.09313965 -3.0149500407e-30
          26.622200012 614.15429688 -2.7954600428e-30 26.402820587 644.0824585 -2.7396400479e-30
          26.378641129 673.5871582 -2.6769799924e-30 26.664329529 703.22009277 -2.6017099858e-30
          24.117139816 921.60748291 -2.2320800189e-30 28.320579529 947.36450195 -2.0093300461e-30
          445.69628906 619.25396729 1.3885300384e-29 442.10491943 771.67095947 1.4071099961e-29
          334.8081665 807.7401123 9.8808902924e-30 329.39465332 973.24127197 1.002250031e-29
          277.78942871 806.11273193 7.6093100898e-30 358.9692688 922.47174072 1.1089400048e-29
          361.17230225 973.10839844 1.1286199995e-29 122.3327179 685.32757568 1.1651599687e-30
          492.08074951 527.24987793 1.5531899768e-29 493.01046753 557.31774902 1.5633700212e-29
          393.51086426 810.82104492 1.2222599924e-29 496.14361572 948.63659668 1.6602300034e-29
          349.19573975 780.00274658 1.0393399811e-29 467.73397827 545.3059082 1.4602399334e-29
          136.45527649 950.74780273 2.2993000521e-30 57.689056396 630.96624756 -1.5234400204e-30
          137.94340515 866.70404053 2.1772500724e-30 307.1446228 583.14764404 8.2961599026e-30
          470.55462646 762.09680176 1.5182099733e-29 139.11061096 712.50689697 1.8911499818e-30
          106.25045776 713.87640381 5.8700901198e-31 332.96588135 862.00146484 9.9246201869e-30
          226.10649109 947.57940674 5.8585701811e-30 108.40254974 940.27319336 1.16083998e-30