<?xml version="1.0"?>
<VTKFile type="UnstructuredGrid" version="0.1" byte_order="LittleEndian" header_type="UInt32" compressor="vtkZLibDataCompressor">
  <UnstructuredGrid>
    <Piece NumberOfPoints="481" NumberOfCells="589">
      <PointData>
      </PointData>
      <CellData>
        <DataArray type="Float64" Name="Partition" format="ascii" RangeMin="1" RangeMax="1">
          1 1 1 1 1 1
          1 1 1 1 1 1
          1 1 1 1 1 1
          1 1 1 1 1 1
          1 1 1 1 1 1
          1 1 1 1 1 1
          1 1 1 1 1 1
          1 1 1 1 1 1
          1 1 1 1 1 1
          1 1 1 1 1 1
          1 1 1 1 1 1
          1 1 1 1 1 1
          1 1 1 1 1 1
          1 1 1 1 1 1
          1 1 1 1 1 1
          1 1 1 1 1 1
          1 1 1 1 1 1
          1 1 1 1 1 1
          1 1 1 1 1 1
          1 1 1 1 1 1
          1 1 1 1 1 1
          1 1 1 1 1 1
          1 1 1 1 1 1
          1 1 1 1 1 1
          1 1 1 1 1 1
          1 1 1 1 1 1
          1 1 1 1 1 1
          1 1 1 1 1 1
          1 1 1 1 1 1
          1 1 1 1 1 1
          1 1 1 1 1 1
          1 1 1 1 1 1
          1 1 1 1 1 1
          1 1 1 1 1 1
          1 1 1 1 1 1
          1 1 1 1 1 1
          1 1 1 1 1 1
          1 1 1 1 1 1
          1 1 1 1 1 1
          1 1 1 1 1 1
          1 1 1 1 1 1
          1 1 1 1 1 1
          1 1 1 1 1 1
          1 1 1 1 1 1
          1 1 1 1 1 1
          1 1 1 1 1 1
          1 1 1 1 1 1
          1 1 1 1 1 1
          1 1 1 1 1 1
          1 1 1 1 1 1
          1 1 1 1 1 1
          1 1 1 1 1 1
          1 1 1 1 1 1
          1 1 1 1 1 1
          1 1 1 1 1 1
          1 1 1 1 1 1
          1 1 1 1 1 1
          1 1 1 1 1 1
          1 1 1 1 1 1
          1 1 1 1 1 1
          1 1 1 1 1 1
          1 1 1 1 1 1
          1 1 1 1 1 1
          1 1 1 1 1 1
          1 1 1 1 1 1
          1 1 1 1 1 1
          1 1 1 1 1 1
          1 1 1 1 1 1
          1 1 1 1 1 1
          1 1 1 1 1 1
          1 1 1 1 1 1
          1 1 1 1 1 1
          1 1 1 1 1 1
          1 1 1 1 1 1
          1 1 1 1 1 1
          1 1 1 1 1 1
          1 1 1 1 1 1
          1 1 1 1 1 1
          1 1 1 1 1 1
          1 1 1 1 1 1
          1 1 1 1 1 1
          1 1 1 1 1 1
          1 1 1 1 1 1
          1 1 1 1 1 1
          1 1 1 1 1 1
          1 1 1 1 1 1
          1 1 1 1 1 1
          1 1 1 1 1 1
          1 1 1 1 1 1
          1 1 1 1 1 1
          1 1 1 1 1 1
          1 1 1 1 1 1
          1 1 1 1 1 1
          1 1 1 1 1 1
          1 1 1 1 1 1
          1 1 1 1 1 1
          1 1 1 1 1 1
          1 1 1 1 1 1
          1
        </DataArray>
      </CellData>
      <Points>
        <DataArray type="Float32" Name="Points" NumberOfComponents="3" format="ascii" RangeMin="420.08117917" RangeMax="1078.1079403">
          499.81640625 172.91744995 0 502.52407837 295.03338623 -0
          499.81640625 172.91744995 68.85849762 502.52407837 295.03338623 68.85849762
          977.82141113 52.18963623 44.565101624 551.20379639 309.85784912 32.08190155
          532.5647583 400.83642578 32.08190155 551.20379639 309.85784912 100
          532.5647583 400.83642578 100 957.57904053 219.74385071 57.476898193
          955.28320312 304.38739014 57.476898193 957.57904053 219.74385071 0
          955.28320312 304.38739014 0 976.46600342 278.2699585 0
          976.46600342 278.2699585 75.122497559 980.45617676 442.01699829 0
          980.45617676 442.01699829 75.122497559 526.23535156 41.413703918 29.149299622
          526.23535156 41.413703918 100 512.72875977 160.29029846 29.149299622
          966.32116699 180.57658386 44.565101624 977.82141113 52.18963623 100
          966.32116699 180.57658386 100 836.84020996 507.44692993 56.776599884
          722.18237305 141.73371887 0 708.15039062 268.92990112 0
          722.18237305 141.73371887 63.378700256 708.04284668 269.9046936 63.378700256
          682.33831787 43.266174316 9.6359796524 664.80596924 178.29333496 9.6359796524
          682.33831787 43.266174316 100 664.80596924 178.29333496 100
          855.91552734 118.27590179 4.3368102409e-19 855.91577148 118.27591705 93.969802856
          866.04510498 1.8434180021 4.3368102409e-19 866.04534912 1.8434371948 93.969802856
          865.00567627 13.793338776 93.969802856 865.0055542 13.793328285 44.227500916
          865.00549316 13.793321609 10.512800217 530.98083496 181.85292053 -0
          613.04632568 189.05168152 0 530.98083496 181.85292053 59.416900635
          613.04632568 189.05168152 59.416900635 522.97418213 29.135627747 77.638702393
          522.97418213 29.135627747 0 436.24551392 41.169807434 77.638702393
          910.21313477 127.1872406 -0 417.79891968 43.729393005 0
          417.79891968 43.729393005 77.638702393 436.24551392 41.169807434 64.617301941
          436.24551392 41.169807434 46.948501587 816.53411865 142.46955872 0
          816.53411865 142.46955872 74.302398682 948.67102051 120.91342163 74.302398682
          948.67102051 120.91342163 -0 836.42749023 139.22425842 0
          848.88623047 137.19180298 0 480.806427 84.257064819 0
          476.81231689 177.18002319 3.2346700593e-30 480.806427 84.257064819 85.119499207
          476.81231689 177.18002319 85.119499207 512.72875977 160.29029846 100
          579.42230225 375.46548462 70.458503723 672.39001465 369.42608643 70.458503723
          579.42230225 375.46548462 1.5265100382e-12 672.39001465 369.42608643 1.5347700324e-12
          619.04962158 372.89120483 -4.0389697607e-28 578.38116455 65.867538452 0
          576.05181885 151.09655762 0 578.38116455 65.867538452 95.473602295
          576.05181885 151.09655762 95.473602295 423.69708252 -1.669775429e-13 100
          423.69708252 2.5243548967e-29 46.948501587 461.37445068 123.61463165 100
          897.43731689 243.34686279 100 897.43731689 243.34686279 23.193199158
          747.24536133 248.53936768 100 747.24536133 248.53936768 23.193199158
          814.18981934 278.09255981 -0 814.18981934 278.09255981 70.523002625
          813.53063965 409.32116699 0 813.53063965 409.32116699 70.523002625
          788.57189941 299.49768066 71.811798096 505.68899536 451.19250488 -0
          500.49331665 203.44642639 -0 501.17022705 233.97541809 0
          501.84716797 264.50439453 0 499.81640625 172.91744995 34.429199219
          505.68899536 451.19250488 60.064800262 512.28051758 493.76062012 60.064800262
          512.28051758 493.76062012 21.726900101 512.30603027 493.76428223 7.8766798973
          820.52111816 68.799209595 100 820.52111816 68.799209595 44.977100372
          761.98077393 63.055633545 100 761.98077393 63.055633545 44.977100372
          761.98077393 63.055633545 71.572998047 761.98077393 63.055633545 81.497001648
          707.21124268 57.68201828 44.977100372 707.21124268 57.68201828 100
          500.49331665 203.44642639 68.85849762 501.17022705 233.97541809 68.85849762
          501.84716797 264.50439453 68.85849762 502.52407837 295.03338623 34.429199219
          739.45556641 424.13586426 100 728.19134521 424.40786743 100
          739.45556641 424.13586426 32.607898712 728.19134521 424.40786743 32.607898712
          559.79064941 428.4744873 100 559.79064941 428.4744873 32.607898712
          762.95465088 0 100 762.95465088 0 16.317399979
          761.70428467 80.955696106 100 761.70428467 80.955696106 16.317399979
          762.6940918 16.868890762 16.317399979 762.6940918 16.868890762 33.754501343
          762.6940918 16.868890762 64.616600037 727.77160645 404.84594727 100
          963.94317627 27.781881332 100 805.19708252 5.3371610641 100
          833.34979248 139.72633362 2.8271098803e-29 737.07861328 440.56863403 0
          717.62670898 441.32989502 2.4318300625e-29 737.84191895 435.23754883 2.5109299613e-29
          783.2053833 438.76342773 2.6921298764e-29 856.52947998 435.89382935 2.9831800207e-29
          788.57189941 299.49768066 2.6834499509e-29 609.06591797 17.433807373 1.9085899545e-29
          774.57891846 16.825187683 2.5668300779e-29 461.37445068 123.61463165 46.948501587
          737.84191895 435.23754883 88.978401184 729.65142822 492.44180298 88.978401184
          729.65142822 492.44180298 66.594497681 729.65142822 492.44180298 44.41809845
          729.65142822 492.44180298 1.8537299633 737.07861328 440.56863403 10.824799538
          737.07861328 440.56863403 77.297798157 963.94317627 27.781881332 10.512800217
          805.19708252 5.3371553421 10.512800217 856.52947998 435.89382935 77.297798157
          783.2053833 438.76342773 36.493801117 783.2053833 438.76342773 71.295700073
          728.54528809 440.90258789 77.297798157 728.54528809 440.90258789 28.502599716
          717.62670898 441.32989502 77.297798157 737.07861328 440.56863403 4.1394901276
          728.54528809 440.90258789 6.0760598183 728.54528809 440.90258789 1.8537299633
          727.77160645 404.84594727 1.8537299633 609.06591797 17.43380928 64.616600037
          774.57891846 16.825187683 64.616600037 514.80755615 509.73266602 -0
          820.52111816 68.799209595 72.488502502 791.25091553 65.92742157 100
          791.25097656 65.92742157 44.977100372 734.5960083 60.36882782 44.977100372
          707.21124268 57.68201828 72.488502502 734.5960083 60.368824005 100
          806.62542725 510.44943237 56.776599884 836.84020996 507.44692993 28.388299942
          544.99078369 340.18405151 32.08190155 538.777771 370.51022339 32.08190155
          551.20379639 309.85784912 66.041000366 544.99078369 340.18405151 100
          538.777771 370.51022339 100 532.5647583 400.83642578 66.041000366
          577.60473633 94.27721405 95.473602295 576.82824707 122.68688202 95.473602295
          576.05181885 151.09655762 63.649101257 576.05181885 151.09655762 31.82449913
          976.46600342 278.2699585 25.040800095 976.46600342 278.2699585 50.081699371
          977.26403809 311.01937866 0 978.06207275 343.76876831 0
          978.86010742 376.51818848 0 979.65814209 409.26757812 0
          977.26403809 311.01937866 75.122497559 978.06207275 343.76876831 75.122497559
          978.86010742 376.51818848 75.122497559 979.65814209 409.26757812 75.122497559
          980.45617676 442.01699829 50.081699371 980.45617676 442.01699829 25.040800095
          974.9463501 84.286376953 44.565101624 972.07128906 116.38311005 44.565101624
          969.19622803 148.47984314 44.565101624 977.82141113 52.18963623 72.282600403
          974.9463501 84.286376953 100 972.07128906 116.38311005 100
          969.19622803 148.47984314 100 966.32116699 180.57658386 72.282600403
          813.69543457 376.51400757 70.523002625 813.53063965 409.32116699 35.261501312
          558.33599854 184.25250244 0 585.69116211 186.65209961 0
          530.98083496 181.85292053 29.708499908 558.33599854 184.25250244 59.416900635
          585.69116211 186.65209961 59.416900635 613.04632568 189.05168152 29.708499908
          718.67437744 173.53276062 0 715.16638184 205.33180237 0
          711.6583252 237.13085938 0 722.18237305 141.73371887 31.689399719
          718.64746094 173.77645874 63.378700256 715.11260986 205.81921387 63.378700256
          711.57769775 237.86195374 63.378700256 708.09661865 269.41729736 31.689399719
          678.83184814 70.271606445 9.6359796524 675.32537842 97.277038574 9.6359796524
          671.81890869 124.2824707 9.6359796524 668.31243896 151.28790283 9.6359796524
          682.33831787 43.266174316 39.757301331 682.33831787 43.266174316 69.878700256
          678.83184814 70.271606445 100 675.32537842 97.277038574 100
          671.81890869 124.2824707 100 668.31243896 151.28790283 100
          664.80596924 178.29333496 69.878700256 664.80596924 178.29333496 39.757301331
          956.8137207 247.95835876 0 956.04846191 276.17288208 0
          957.57904053 219.74385071 28.738399506 956.81378174 247.95835876 57.476898193
          956.04846191 276.17288208 57.476898193 955.28320312 304.38739014 28.738399506
          522.97418213 29.135627747 51.759101868 522.97418213 29.135627747 25.879600525
          494.06463623 33.147022247 77.638702393 465.15505981 37.158412933 77.638702393
          496.68035889 32.784069061 -0 470.38653564 36.432510376 0
          444.09274292 40.080951691 0 417.79891968 43.729393005 25.879600525
          417.79891968 43.729393005 51.759101868 816.53411865 142.46955872 37.151199341
          849.56835938 137.08052063 74.302398682 882.60253906 131.6914978 74.302398682
          915.63677979 126.30245972 74.302398682 948.67102051 120.91342163 37.151199341
          879.54968262 132.18952942 0 479.47506714 115.23137665 0
          478.14367676 146.20570374 -2.122230053e-29 480.806427 84.257064819 28.373199463
          480.806427 84.257064819 56.746299744 479.47506714 115.23137665 85.119499207
          478.14367676 146.20570374 85.119499207 476.81231689 177.18002319 56.746299744
          476.81231689 177.18002319 28.373199463 526.23535156 41.413703918 64.57460022
          522.85870361 71.132850647 29.149299622 519.48205566 100.85201263 29.149299622
          516.10540771 130.57115173 29.149299622 522.85870361 71.132850647 100
          519.48205566 100.85201263 100 516.10540771 130.57115173 100
          512.72875977 160.29029846 64.57460022 610.41156006 373.45236206 70.458503723
          641.40075684 371.43920898 70.458503723 579.42230225 375.46548462 35.229301453
          672.39001465 369.42608643 35.229301453 645.7197876 371.15863037 1.730400003e-12
          577.60473633 94.27721405 0 576.82824707 122.68688202 0
          578.38116455 65.867538452 31.82449913 578.38116455 65.867538452 63.649101257
          862.73156738 39.931182861 23.448900223 860.30145264 67.864189148 65.299301147
          858.16485596 92.422645569 53.861999512 859.79333496 73.703720093 29.601600647
          862.48522949 42.763149261 54.599201202 852.23272705 244.90969849 47.669101715
          824.66748047 245.86270142 70.606498718 863.35144043 244.52529907 73.125
          795.42388916 246.87371826 76.183799744 823.42810059 245.9055481 43.764598846
          799.15667725 246.74465942 49.820999146 773.80474854 247.62113953 61.97480011
          813.7980957 356.07772827 26.989500046 813.92358398 331.08831787 27.066900253
          813.68475342 378.64538574 44.794200897 814.03594971 308.73031616 44.805698395
          572.01361084 185.45230103 29.310400009 855.91558838 118.27590942 31.323299408
          855.91564941 118.27591705 62.646499634 858.44793701 89.167778015 4.3368102409e-19
          860.98028564 60.059658051 4.3368102409e-19 863.51269531 30.951538086 4.3368102409e-19
          866.04516602 1.8434244394 31.323299408 866.04522705 1.8434307575 62.646499634
          858.94573975 83.448394775 93.969802856 861.97570801 48.620864868 93.969802856
          865.00561523 13.793334007 69.098602295 897.43731689 243.34686279 74.397697449
          897.43731689 243.34686279 48.795501709 867.39892578 244.38536072 100
          837.36053467 245.42385864 100 807.32214355 246.46235657 100
          777.28375244 247.50086975 100 867.39892578 244.38536072 23.193199158
          837.36053467 245.42385864 23.193199158 807.32214355 246.46237183 23.193199158
          777.28375244 247.50086975 23.193199158 747.24536133 248.53936768 48.795501709
          747.24536133 248.53936768 74.397697449 814.18981934 278.09255981 35.261501312
          814.02502441 310.89971924 0 813.86022949 343.70687866 -0
          813.69543457 376.51400757 -0 814.02502441 310.89971924 70.523002625
          813.86022949 343.70684814 70.523002625 728.79876709 452.7159729 100
          729.40618896 481.02407837 100 932.19396973 23.292938232 100
          900.44476318 18.803993225 100 868.69549561 14.315049171 100
          836.94628906 9.8261051178 100 729.25634766 495.19894409 2.4897099749e-29
          733.16748047 467.88378906 2.4993700182e-29 760.14202881 439.66601562 2.6005901252e-29
          819.86743164 437.32861328 2.8376501337e-29 784.27868652 410.91027832 2.6903899191e-29
          785.35198975 383.05712891 2.6886598923e-29 786.42529297 355.20397949 2.686919935e-29
          787.49859619 327.35083008 2.6851799776e-29 636.65142822 17.332370758 2.0182900214e-29
          664.23693848 17.230934143 2.1280000188e-29 691.82244873 17.129497528 2.2377100162e-29
          719.40789795 17.028060913 2.3474099326e-29 746.9934082 16.926624298 2.45711993e-29
          505.68899536 451.19250488 30.032400131 510.24829102 480.46258545 0
          881.57244873 464.70718384 26.79540062 881.57244873 464.70718384 53.590801239
          739.45556641 424.13586426 66.303901672 728.19134521 424.40786743 66.303901672
          700.12457275 425.08563232 100 672.05780029 425.76339722 100
          643.9909668 426.44116211 100 615.92419434 427.118927 100
          587.85742188 427.79669189 100 559.79064941 428.4744873 66.303901672
          587.85742188 427.79672241 32.607898712 615.92419434 427.11895752 32.607898712
          643.99102783 426.44119263 32.607898712 672.05780029 425.76342773 32.607898712
          700.12457275 425.08566284 32.607898712 762.95465088 0 72.105796814
          762.95465088 0 44.211601257 762.4677124 31.527814865 100
          762.19921875 48.91229248 16.317399979 761.70428467 80.955696106 44.211601257
          761.70428467 80.955696106 72.105796814 502.63778687 492.37023926 100
          536.00524902 497.181427 100 542.45074463 498.11077881 7.8766798973
          423.69708252 -8.5265128291e-14 73.47429657 433.11642456 30.903657913 100
          442.5357666 61.807315826 100 451.95510864 92.710975647 100
          461.37445068 123.61463165 73.47429657 452.99813843 96.133026123 46.948501587
          444.62182617 68.651412964 46.948501587 737.84191895 435.23754883 29.659500122
          737.84191895 435.23754883 59.318901062 733.74664307 463.83969116 88.978401184
          737.07861328 440.56863403 44.06129837 963.94317627 27.781881332 70.170898438
          963.94317627 27.781881332 40.341899872 930.96392822 23.119028091 10.512800217
          897.98474121 18.45617485 10.512800217 835.10131836 9.565237999 10.512800217
          805.19708252 5.3371553421 70.170898438 805.19708252 5.3371553421 40.341899872
          766.94134521 439.39993286 77.297798157 796.80407715 438.23123169 77.297798157
          826.66674805 437.06253052 77.297798157 856.52947998 435.89382935 51.531898499
          856.52947998 435.89382935 25.765899658 728.54528809 440.90258789 52.90019989
          717.62670898 441.32989502 25.765899658 717.62670898 441.32989502 51.531898499
          729.0982666 466.67218018 1.8537299633 727.77160645 404.84594727 34.569198608
          727.77160645 404.84594727 67.284599304 730.62109375 537.64025879 34.569198608
          730.13616943 515.04101562 1.8537299633 731.96844482 16.981874466 64.616600037
          701.24279785 17.09485817 64.616600037 670.51721191 17.207841873 64.616600037
          639.79156494 17.320825577 64.616600037 774.57891846 16.825187683 32.308300018
          609.06591797 17.43380928 32.308300018 788.57189941 299.49768066 35.905899048
          787.49859619 327.35083008 71.708602905 786.42529297 355.20397949 71.605400085
          785.35198975 383.05712891 71.502098083 784.27868652 410.91027832 71.398902893
          500.78665161 216.67546082 34.991699219 501.55203247 251.19441223 33.553100586
          541.88427734 355.34713745 65.043701172 977.82672119 334.10955811 48.614601135
          977.73754883 330.45046997 22.899999619 979.09545898 386.17739868 48.614601135
          979.18463135 389.83648682 22.899999619 977.16137695 306.80569458 37.074401855
          978.46112061 360.14349365 27.67550087 978.46112061 360.14349365 54.336101532
          979.76080322 413.48126221 37.074401855 970.44207764 134.57148743 72.134597778
          973.69287109 98.279876709 72.513000488 791.51800537 511.95068359 28.689199448
          717.13452148 187.49119568 32.105300903 713.15722656 223.54408264 31.054000854
          669.30926514 143.61090088 33.949100494 677.10198975 83.594161987 38.364299774
          672.83685303 116.44259644 38.070400238 679.7109375 63.501045227 55.120098114
          677.73809814 78.695350647 72.508201599 673.93121338 108.01452637 69.80670166
          669.31396484 143.57466125 65.263900757 956.69439697 252.35966492 24.326200485
          956.17028809 271.68197632 33.263000488 465.48742676 37.112297058 54.531898499
          490.82284546 33.59683609 34.414798737 454.85964966 38.586971283 26.961900711
          901.70904541 128.57455444 48.821899414 866.79693604 134.26994324 20.529100418
          845.47576904 137.74816895 26.128000259 872.17297363 133.39292908 45.441898346
          892.40020752 130.09315491 23.522399902 922.03613281 125.25849915 25.570899963
          927.53381348 124.3616333 51.297798157 478.80935669 130.71855164 56.874099731
          478.80935669 130.71855164 28.124200821 479.69430542 110.13076782 42.540401459
          477.92443848 151.30632019 42.540401459 521.39550781 84.010948181 62.743400574
          517.57757568 117.61422729 62.993900299 631.89465332 372.0567627 32.738800049
          603.43548584 373.90551758 26.986000061 576.82415771 122.83828735 47.736801147
          577.61279297 93.982086182 47.736801147 577.21710205 108.45910645 26.495399475
          577.21710205 108.45910645 68.97820282 516.94354248 523.78961182 29.763599396
          509.56365967 476.21511841 35.784599304 784.93426514 65.307678223 67.981796265
          736.23046875 60.529186249 79.18460083 881.19458008 487.7086792 32.458400726
          599.82385254 427.50775146 67.803100586 629.69366455 426.78643799 68.122497559
          658.18756104 426.09835815 68.094200134 688.15435791 425.37469482 67.583503723
          537.91534424 497.45684814 41.722900391 546.89776611 498.75198364 71.802696228
          431.34494019 25.091684341 68.283798218 445.13574219 70.337463379 72.069503784
          454.25891113 100.2694397 78.273300171 726.8147583 512.25354004 21.739900589
          733.49151611 465.62167358 58.328201294 733.41070557 466.1859436 26.977199554
          914.11767578 20.737176895 38.093299866 834.84796143 9.5294179916 55.666698456
          910.8694458 20.27791214 69.800300598 936.43139648 23.892057419 54.903999329
          884.01647949 16.481235504 78.868896484 889.54608154 17.263053894 45.160198212
          761.08532715 439.62911987 55.174198151 760.5213623 439.65118408 24.790599823
          804.91247559 437.91390991 24.645399094 805.01818848 437.90975952 53.784198761
          828.59655762 436.98703003 38.666599274 729.16662598 469.85983276 80.810897827
          729.11529541 467.46792603 24.419500351 729.03527832 463.73800659 53.911598206
          651.23474121 17.278747559 33.56539917 711.55279541 17.056945801 32.496799469
          682.42303467 17.1640625 33.502700806 737.87579346 16.960151672 24.8416996
          784.73706055 399.01467896 33.981300354 787.04022217 339.24645996 33.955699921
          785.88861084 369.1305542 33.821098328
        </DataArray>
      </Points>
      <Cells>
        <DataArray type="Int64" Name="connectivity" format="ascii" RangeMin="0" RangeMax="480">
          397 396 101 85 84 396
          103 1 86 103 397 102
          396 84 87 87 84 0
          100 101 396 396 397 85
          397 86 85 100 87 2
          103 86 397 3 103 102
          100 396 87 102 397 101
          165 6 161 165 398 164
          164 398 163 162 160 5
          398 161 160 163 162 7
          8 165 164 165 161 398
          162 398 160 162 163 398
          172 403 400 170 172 13
          179 180 406 181 15 175
          176 403 171 16 180 179
          404 405 401 177 178 405
          402 175 174 176 171 14
          172 400 173 179 406 401
          399 404 400 399 176 177
          403 170 171 406 180 181
          401 402 404 179 401 178
          172 170 403 400 403 399
          405 178 401 177 405 399
          405 404 399 176 399 403
          401 406 402 402 174 404
          404 174 173 400 404 173
          406 181 175 402 406 175
          188 407 187 188 189 407
          408 407 183 22 189 188
          185 182 4 21 186 185
          187 407 408 189 20 184
          187 408 186 407 189 184
          407 184 183 183 182 408
          408 182 185 186 408 185
          159 409 158 23 159 158
          200 205 25 204 27 205
          199 411 200 410 202 203
          203 411 410 201 198 24
          203 204 411 200 411 205
          411 204 205 26 202 201
          410 198 201 410 199 198
          202 410 201 199 410 411
          31 216 215 207 206 413
          212 211 30 413 414 207
          210 206 28 413 210 415
          214 418 417 216 217 418
          412 208 414 415 210 211
          217 29 209 206 210 413
          213 417 416 414 208 207
          214 215 418 217 209 412
          412 209 208 415 416 413
          211 416 415 215 216 418
          213 214 417 211 212 416
          416 212 213 418 217 412
          417 414 413 416 417 413
          414 418 412 414 417 418
          221 220 9 223 420 222
          220 218 11 420 419 221
          419 219 218 223 12 219
          420 219 419 223 219 420
          10 223 222 220 419 218
          220 221 419 222 420 221
          50 49 421 225 422 224
          49 45 227 228 229 422
          224 226 43 49 48 45
          421 227 226 225 228 422
          231 232 50 421 226 422
          44 228 225 422 226 224
          230 47 231 232 48 49
          50 232 49 421 49 227
          229 230 423 230 231 423
          423 231 50 423 50 421
          422 423 421 422 229 423
          427 235 424 424 429 428
          53 430 236 234 426 233
          233 55 120 237 54 429
          427 425 426 425 56 426
          52 234 233 235 236 424
          425 238 56 234 235 427
          236 430 424 53 237 430
          426 56 55 234 427 426
          428 46 238 233 426 55
          428 429 46 428 238 425
          425 427 428 428 427 424
          429 54 46 430 237 429
          424 430 429 241 239 57
          434 240 432 246 58 240
          241 242 433 243 242 59
          432 240 239 244 431 243
          60 245 244 434 432 431
          242 243 433 433 243 431
          433 431 432 246 240 434
          245 246 434 433 432 239
          241 433 239 434 431 244
          245 434 244 248 247 435
          247 248 17 254 19 250
          252 436 435 435 247 251
          254 250 436 248 435 249
          436 250 249 251 247 18
          435 436 249 254 436 253
          61 254 253 435 251 252
          252 253 436 438 257 255
          256 258 437 66 438 437
          438 64 257 66 64 438
          258 65 259 255 257 62
          63 258 256 437 258 259
          437 259 66 256 437 255
          437 438 255 262 260 67
          263 442 440 69 166 263
          439 168 169 262 441 260
          169 441 439 262 263 440
          261 169 68 168 439 442
          167 70 168 440 439 441
          439 440 442 168 442 167
          262 440 441 169 261 441
          441 261 260 263 166 442
          442 166 167 38 286 37
          38 34 286 281 267 266
          281 283 267 284 285 264
          268 267 264 290 287 35
          37 286 287 282 288 33
          283 284 267 281 266 282
          285 34 38 32 283 281
          265 289 288 36 290 35
          36 289 290 290 37 287
          268 37 290 266 288 282
          265 288 266 265 267 268
          267 284 264 285 38 264
          264 38 37 264 37 268
          265 266 267 289 268 290
          289 265 268 291 293 74
          300 274 299 302 76 296
          301 302 275 273 269 298
          272 296 295 294 293 271
          299 273 298 302 296 275
          270 295 294 297 292 75
          271 270 294 297 298 269
          77 301 300 270 269 273
          275 272 274 297 269 292
          269 270 271 271 291 292
          293 291 271 269 271 292
          270 272 295 275 296 272
          272 270 274 274 270 273
          274 273 299 275 274 300
          301 275 300 307 279 79
          303 304 78 191 80 306
          279 303 79 304 277 305
          276 306 305 308 190 278
          276 277 308 277 276 305
          304 279 277 308 278 276
          81 278 190 191 306 278
          304 303 279 81 191 278
          278 306 276 279 307 308
          277 279 308 197 40 193
          197 280 196 196 280 195
          194 192 39 280 193 192
          195 194 41 42 197 196
          197 193 280 194 280 192
          194 195 280 328 444 329
          151 90 443 328 329 83
          151 91 90 91 151 329
          444 90 329 90 91 329
          444 328 88 152 153 92
          154 95 445 96 97 445
          445 153 152 445 95 96
          97 94 153 445 97 153
          154 445 152 93 154 152
          99 446 156 155 96 95
          446 97 96 98 156 155
          99 157 446 94 97 157
          155 446 96 446 157 97
          155 156 446 331 447 330
          106 333 332 332 105 104
          106 107 333 332 333 105
          339 108 338 333 334 105
          339 448 340 109 339 340
          448 449 341 344 451 333
          449 342 341 451 344 343
          335 334 451 451 334 333
          335 451 450 448 338 337
          340 448 341 339 338 448
          344 333 107 336 450 449
          336 335 450 448 337 449
          449 337 336 450 343 342
          449 450 342 450 451 343
          348 114 115 95 348 115
          112 350 94 95 115 116
          96 95 116 114 111 115
          115 111 346 115 346 116
          346 345 116 95 350 349
          113 95 349 113 348 95
          347 96 116 116 345 347
          347 345 110 95 96 350
          351 352 89 90 353 91
          352 453 89 452 353 90
          360 50 49 71 355 354
          357 455 356 455 49 45
          454 355 45 359 456 358
          456 359 455 354 454 72
          355 454 354 355 356 45
          360 49 455 455 359 360
          129 359 358 456 357 73
          357 456 455 45 49 454
          49 50 454 454 50 72
          356 455 45 358 456 73
          136 364 362 133 457 134
          457 315 134 121 145 316
          130 136 362 361 135 123
          136 458 364 364 458 459
          135 145 123 130 363 136
          459 458 133 136 363 458
          458 132 133 363 131 132