<?xml version="1.0"?>
<VTKFile type="UnstructuredGrid" version="0.1" byte_order="LittleEndian" header_type="UInt32" compressor="vtkZLibDataCompressor">
  <UnstructuredGrid>
    <Piece NumberOfPoints="376" NumberOfCells="438">
      <PointData>
      </PointData>
      <CellData>
        <DataArray type="Float64" Name="Partition" format="ascii" RangeMin="2" RangeMax="2">
          2 2 2 2 2 2
          2 2 2 2 2 2
          2 2 2 2 2 2
          2 2 2 2 2 2
          2 2 2 2 2 2
          2 2 2 2 2 2
          2 2 2 2 2 2
          2 2 2 2 2 2
          2 2 2 2 2 2
          2 2 2 2 2 2
          2 2 2 2 2 2
          2 2 2 2 2 2
          2 2 2 2 2 2
          2 2 2 2 2 2
          2 2 2 2 2 2
          2 2 2 2 2 2
          2 2 2 2 2 2
          2 2 2 2 2 2
          2 2 2 2 2 2
          2 2 2 2 2 2
          2 2 2 2 2 2
          2 2 2 2 2 2
          2 2 2 2 2 2
          2 2 2 2 2 2
          2 2 2 2 2 2
          2 2 2 2 2 2
          2 2 2 2 2 2
          2 2 2 2 2 2
          2 2 2 2 2 2
          2 2 2 2 2 2
          2 2 2 2 2 2
          2 2 2 2 2 2
          2 2 2 2 2 2
          2 2 2 2 2 2
          2 2 2 2 2 2
          2 2 2 2 2 2
          2 2 2 2 2 2
          2 2 2 2 2 2
          2 2 2 2 2 2
          2 2 2 2 2 2
          2 2 2 2 2 2
          2 2 2 2 2 2
          2 2 2 2 2 2
          2 2 2 2 2 2
          2 2 2 2 2 2
          2 2 2 2 2 2
          2 2 2 2 2 2
          2 2 2 2 2 2
          2 2 2 2 2 2
          2 2 2 2 2 2
          2 2 2 2 2 2
          2 2 2 2 2 2
          2 2 2 2 2 2
          2 2 2 2 2 2
          2 2 2 2 2 2
          2 2 2 2 2 2
          2 2 2 2 2 2
          2 2 2 2 2 2
          2 2 2 2 2 2
          2 2 2 2 2 2
          2 2 2 2 2 2
          2 2 2 2 2 2
          2 2 2 2 2 2
          2 2 2 2 2 2
          2 2 2 2 2 2
          2 2 2 2 2 2
          2 2 2 2 2 2
          2 2 2 2 2 2
          2 2 2 2 2 2
          2 2 2 2 2 2
          2 2 2 2 2 2
          2 2 2 2 2 2
          2 2 2 2 2 2
        </DataArray>
      </CellData>
      <Points>
        <DataArray type="Float32" Name="Points" NumberOfComponents="3" format="ascii" RangeMin="72.803014672" RangeMax="748.50913106">
          367.95123291 256.76272583 76.290298462 296.29882812 255.0579834 0
          296.29882812 255.0579834 76.290298462 367.95123291 256.76272583 0
          181.06416321 327.86004639 72.82800293 357.54290771 402.38607788 29.399000168
          254.16334534 173.92823792 2.0194799451e-28 351.23397827 262.0328064 29.399000168
          357.54290771 402.38607788 100 239.71217346 534.51672363 0
          370.06640625 533.15350342 0 239.71217346 534.51672363 72.009597778
          370.06640625 533.15350342 72.009597778 179.16329956 232.516922 0
          181.06416321 327.86004639 0 179.16329956 232.516922 72.82800293
          277.66897583 58.97145462 60.714500427 251.43171692 187.2875824 60.714500427
          277.66897583 58.97145462 7.9528999488e-13 251.43171692 187.2875824 7.9528999488e-13
          416.46740723 404.72058105 15.777600288 416.46740723 404.72058105 100
          512.47241211 408.58947754 15.777600288 351.23397827 262.0328064 100
          207.35728455 224.07820129 0.47786000371 212.41995239 355.11096191 0.47786000371
          207.35728455 224.07820129 100 212.41995239 355.11096191 100
          420.58078003 328.48306274 100 350.91027832 456.53552246 0
          475.12744141 450.79327393 0 350.91027832 456.53552246 89.018302917
          475.12744141 450.79327393 89.018302917 408.43356323 161.85610962 44.447299957
          405.37408447 290.75640869 44.447299957 408.43356323 161.85610962 100
          405.37408447 290.75640869 100 119.57006073 92.686271667 0
          119.57006073 92.686271667 97.845802307 132.26734924 183.62652588 0
          132.26734924 183.62652588 97.845802307 512.47241211 408.58947754 100
          50.416496277 83.312187195 23.407499313 46.560874939 188.51986694 23.407499313
          50.416496277 83.312187195 100 46.560874939 188.51986694 100
          423.9269104 186.0067749 32.85200119 420.58078003 328.48306274 32.85200119
          423.9269104 186.0067749 100 197.62084961 97.642669678 -0
          197.62084961 97.642669678 61.370998383 193.61221313 202.39492798 0
          193.61221313 202.39492798 61.370998383 353.10806274 154.99763489 56.014701843
          465.62310791 146.54194641 56.014701843 353.10806274 154.99763489 8.7012097831e-13
          465.62310791 146.54194641 8.7012097831e-13 72.769042969 -2.6645352591e-13 100
          72.769042969 0 2.2238099575 333.59860229 9.1486686933e-14 10.693400383
          333.59860229 7.6874965405e-15 36.76309967 333.59860229 -1.1634936721e-13 96.765098572
          80.380332947 86.140533447 100 271.75341797 179.11045837 100
          274.51107788 319.75390625 100 121.09676361 486.09094238 32.929599762
          121.09676361 486.09094238 100 316.59100342 299.50500488 87.670303345
          314.33743286 408.95953369 87.670303345 316.59100342 299.50500488 9.3432502878e-15
          314.33743286 408.95953369 9.3432502878e-15 512.28051758 493.76062012 37.563098907
          346.98760986 136.08665466 96.765098572 169.01951599 80.071632385 0
          107.00832367 77.539756775 0 241.69007874 207.13121033 90.921699524
          241.69007874 207.13121033 0 272.3230896 208.16468811 90.921699524
          272.3230896 208.16468811 60.07970047 366.61117554 211.34571838 90.921699524
          285.62884521 208.61358643 0 366.61117554 211.34571838 -0
          272.3230896 208.16468811 49.685699463 505.68899536 451.19250488 60.064800262
          512.28051758 493.76062012 60.064800262 512.28051758 493.76062012 21.726900101
          512.30603027 493.76428223 7.8766798973 169.01951599 80.071632385 99.031997681
          79.521209717 76.417472839 99.031997681 296.29882812 255.0579834 25.430099487
          62.765003204 75.733329773 99.031997681 79.521209717 76.417472839 89.5338974
          62.765003204 75.733329773 0 107.00832367 77.539756775 30.377099991
          107.00832367 77.539756775 41.235900879 107.00832367 77.539756775 59.115699768
          79.521209717 76.417472839 15.617199898 79.521209717 76.417472839 2.7941799164
          469.27029419 487.55908203 7.8766798973 469.27029419 487.55908203 100
          333.59860229 1.2434497876e-13 4.1598700129e-28 194.94842529 167.47750854 61.370998383
          193.61221313 202.39492798 30.685499191 346.98760986 136.08665466 -0
          102.17170715 12.131530762 -1.0885499926e-30 111.58403015 139.41967773 0
          80.380325317 86.140533447 2.2238099575 356.28112793 374.31542969 100
          357.54290771 402.38607788 64.699501038 274.51107788 319.75390625 49.685699463
          271.75341797 179.11045837 49.685699463 111.58403015 139.41967773 59.115699768
          102.17170715 12.131530762 59.115699768 514.80755615 509.73266602 -0
          519.36688232 539.00274658 0 139.18675232 78.85357666 99.031997681
          109.35398102 77.635528564 99.031997681 169.01951599 80.071632385 66.02130127
          169.01951599 80.071632385 33.010700226 407.66870117 194.08117676 44.447299957
          406.90380859 226.30625916 44.447299957 406.13894653 258.53134155 44.447299957
          408.43356323 161.85610962 72.223602295 296.29882812 255.0579834 50.860198975
          332.12503052 255.91035461 0 332.12503052 255.91035461 76.290298462
          367.95123291 256.76272583 50.860198975 367.95123291 256.76272583 25.430099487
          272.30072021 534.17590332 0 304.88928223 533.83514404 0
          337.47784424 533.49432373 0 239.71217346 534.51672363 36.004798889
          272.30072021 534.17590332 72.009597778 304.88928223 533.83514404 72.009597778
          337.47784424 533.49432373 72.009597778 370.06640625 533.15350342 36.004798889
          179.79692078 264.29797363 0 180.43054199 296.07901001 0
          179.16329956 232.516922 36.414001465 179.79692078 264.29797363 72.82800293
          180.43054199 296.07901001 72.82800293 181.06416321 327.86004639 36.414001465
          271.10964966 91.050483704 60.714500427 264.550354 123.1295166 60.714500427
          257.99102783 155.20855713 60.714500427 277.66897583 58.97145462 30.357299805
          251.43171692 187.2875824 30.357299805 260.0397644 145.18904114 -0
          265.91616821 116.44983673 -0 271.79257202 87.710647583 0
          352.49575806 290.10345459 29.399000168 353.75753784 318.17410278 29.399000168
          355.01934814 346.24478149 29.399000168 356.28112793 374.31542969 29.399000168
          351.23397827 262.0328064 64.699501038 352.49575806 290.10345459 100
          353.75753784 318.17410278 100 355.01934814 346.24478149 100
          197.62084961 97.642669678 30.685499191 196.28463745 132.56008911 0
          194.94842529 167.47750854 0 196.28463745 132.56008911 61.370998383
          208.62295532 256.83639526 0.47786000371 209.88861084 289.59457397 0.47786000371
          211.15428162 322.3527832 0.47786000371 207.35728455 224.07820129 33.651901245
          207.35728455 224.07820129 66.825996399 208.62295532 256.83639526 100
          209.88861084 289.59457397 100 211.15428162 322.3527832 100
          212.41995239 355.11096191 66.825996399 212.41995239 355.11096191 33.651901245
          407.66870117 194.08117676 100 406.90380859 226.30625916 100
          406.13894653 258.53134155 100 405.37408447 290.75640869 72.223602295
          119.57006073 92.686271667 32.615299225 119.57006073 92.686271667 65.230499268
          123.80249786 122.99968719 0 128.03492737 153.31311035 0
          123.80249023 122.99968719 97.845802307 128.03492737 153.31311035 97.845802307
          132.26734924 183.62652588 65.230499268 132.26734924 183.62652588 32.615299225
          416.46740723 404.72058105 43.851699829 416.46740723 404.72058105 71.92590332
          448.46908569 406.01022339 15.777600288 480.47073364 407.29983521 15.777600288
          448.46908569 406.01022339 100 480.47073364 407.29983521 100
          512.47241211 408.58947754 71.92590332 512.47241211 408.58947754 43.851699829
          49.452590942 109.61411285 23.407499313 48.488685608 135.91603088 23.407499313
          47.524780273 162.21794128 23.407499313 50.416496277 83.312187195 48.938301086
          50.416496277 83.312187195 74.469200134 49.452590942 109.61411285 100
          48.488685608 135.91603088 100 47.524780273 162.21794128 100
          46.560874939 188.51986694 74.469200134 46.560874939 188.51986694 48.938301086
          423.25769043 214.50202942 32.85200119 422.58847046 242.99728394 32.85200119
          421.91921997 271.49255371 32.85200119 421.25 299.98779297 32.85200119
          423.9269104 186.0067749 66.426002502 423.25769043 214.50202942 100
          422.58847046 242.99728394 100 421.91921997 271.49255371 100
          421.25 299.98779297 100 420.58078003 328.48306274 66.426002502
          381.96456909 455.09994507 0 413.01885986 453.66439819 -0
          444.07315063 452.2288208 0 350.91027832 456.53552246 29.672800064
          350.91027832 456.53552246 59.345500946 381.96456909 455.09994507 89.018302917
          413.01885986 453.66439819 89.018302917 444.07315063 452.2288208 89.018302917
          475.12744141 450.79327393 59.345500946 475.12744141 450.79327393 29.672800064
          393.42575073 151.96769714 28.116699219 425.23080444 149.57748413 27.837099075
          124.06590271 541.54962158 73.426101685 122.6085434 514.32843018 62.891498566
          316.16830444 320.03515625 43.790901184 315.84857178 335.5637207 26.91119957
          315.74649048 340.5229187 60.117900848 314.99298096 377.11972046 58.415298462
          315.2086792 366.64303589 28.796800613 381.23681641 152.88371277 56.014701843
          409.36560059 150.76979065 56.014701843 437.49435425 148.65586853 56.014701843
          353.10806274 154.99763489 28.007400513 465.62310791 146.54194641 28.007400513
          437.49435425 148.65586853 -7.0681898589e-28 409.36557007 150.76979065 0
          381.23681641 152.88371277 -2.0194799451e-28 336.27639771 27.217330933 0
          338.95422363 54.434661865 0 341.63201904 81.651992798 0
          344.30981445 108.86932373 0 104.59001923 44.835643768 -9.2182699573e-31
          109.2961731 108.47972107 0 122.95614624 520.82128906 32.929599762
          121.09676361 486.09094238 66.464797974 122.95614624 520.82128906 100
          316.02761841 326.86865234 87.670303345 315.46420288 354.23226929 87.670303345
          314.90081787 381.59591675 87.670303345 316.59100342 299.50500488 58.446899414
          316.59100342 299.50500488 29.223400116 314.33743286 408.95953369 58.446899414
          314.33743286 408.95953369 29.223400116 314.90081787 381.59588623 0
          315.46420288 354.23226929 0 316.02761841 326.86862183 -4.7331699452e-30
          241.69007874 207.13121033 60.614498138 241.69007874 207.13121033 30.307199478
          303.75244141 209.22503662 90.921699524 335.18182373 210.28536987 90.921699524
          366.61117554 211.34571838 60.614498138 366.61117554 211.34571838 30.307199478
          312.62295532 209.52430725 0 339.61706543 210.43501282 0
          516.1574707 518.79821777 60.064800262 138.01391602 78.80569458 0
          62.765003204 75.733329773 33.010700226 62.765003204 75.733329773 66.02130127
          79.521209717 76.417472839 52.57559967 469.27029419 487.55908203 38.584499359
          469.27029419 487.55908203 69.292198181 502.63778687 492.37023926 100
          72.769042969 2.0194839174e-28 67.407897949 72.769042969 0 34.815898895
          333.59860229 -1.9913368507e-14 66.764099121 75.306137085 28.713510513 100
          77.843238831 57.427021027 100 272.30496216 207.239151 100
          272.85647583 235.36784363 100 273.40802002 263.496521 100
          273.95953369 291.62521362 100 75.019767761 25.472490311 2.4139299393
          77.270484924 50.944980621 2.6040599346 80.380325317 86.140533447 67.407897949
          80.380325317 86.140533447 34.815898895 274.51107788 319.75390625 74.842796326
          273.96408081 291.8565979 49.685699463 273.41708374 263.95928955 49.685699463
          272.87008667 236.06199646 49.685699463 271.75341797 179.11045837 74.842796326
          109.2961731 108.47972107 59.115699768 111.58403015 139.41967773 29.557800293
          104.59001923 44.835643768 59.115699768 102.17170715 12.131530762 29.557800293
          346.98760986 136.08665466 32.255001068 346.98760986 136.08665466 64.510101318
          344.30981445 108.86932373 96.765098572 341.63201904 81.651992798 96.765098572
          338.95422363 54.434661865 96.765098572 336.27642822 27.217329025 96.765098572
          333.21286011 255.93623352 38.14509964 316.70211792 533.71154785 30.644899368
          293.19708252 533.95739746 41.151000977 339.51565552 533.47302246 46.22600174
          270.26464844 534.19720459 25.773399353 180.11373901 280.18847656 24.349100113
          180.11373901 280.18847656 48.418201447 270.78610229 92.632926941 32.607200623
          262.78305054 131.77262878 29.308900833 257.26272583 158.77033997 24.258499146
          355.74279785 362.33920288 64.014900208 354.3918457 332.28527832 65.088699341
          353.03521729 302.10443115 63.7397995 210.62316895 308.60629272 26.701400757
          209.15768433 270.67648315 26.732299805 211.21878052 324.02215576 50.162700653
          208.55853271 255.16897583 50.175498962 209.1605835 270.75158691 73.596496582
          210.61317444 308.3477478 73.563201904 209.88871765 289.59698486 50.041599274
          407.33724976 208.04516602 72.375602722 406.47241211 244.48187256 71.98690033
          125.91314697 138.11662292 27.046499252 128.07328796 153.58795166 48.98279953
          123.72769165 122.46398163 48.983200073 125.91290283 138.11477661 70.834701538
          464.46990967 406.6550293 72.061203003 464.46990967 406.6550293 43.587898254
          443.09854126 405.79379272 57.868301392 485.84127808 407.51626587 57.868301392
          47.916343689 151.53340149 70.483398438 48.927158356 123.95147705 47.83549881
          47.902435303 151.91296387 43.852100372 49.279060364 114.34916687 73.265800476
          422.25384521 257.24493408 65.440597534 421.53582764 287.81796265 65.281402588
          422.97186279 226.67189026 67.099197388 448.50091553 452.0241394 45.005298615
          377.45581055 455.30838013 44.111198425 422.90536499 453.20736694 31.515300751
          399.11941528 454.3069458 26.847400665 402.87304688 454.13342285 57.870300293
          426.59332275 453.03689575 62.531299591 195.64161682 149.36335754 29.663200378
          194.52043152 178.66178894 30.527099609 196.83496094 118.17926025 30.036699295
          268.21438599 208.02607727 21.132400513 312.83169556 209.53134155 59.28150177
          333.32730103 210.22280884 29.686199188 297.88479614 209.02706909 26.711999893
          516.94354248 523.78961182 29.763599396 509.56365967 476.21511841 35.784599304
          130.72201538 78.507972717 72.673202515 132.96574402 78.599578857 42.268798828
          493.97924805 491.12179565 28.7602005 537.91534424 497.45684814 41.722900391
          546.89776611 498.75198364 71.802696228 491.51983643 490.7671814 58.172698975
          343.5880127 101.53276062 62.427398682 340.07678223 65.844558716 24.35779953
          336.74176025 31.947099686 25.68239975 343.01922607 95.751815796 27.435600281
          340.1942749 67.038642883 68.965301514 336.81585693 32.700145721 63.06129837
          338.9276123 54.164211273 45.847301483 341.26000977 77.870872498 45.865600586
          77.406791687 52.487602234 39.522201538 77.45652771 53.050487518 74.208503723
          75.51222229 31.045845032 29.726200104 75.091491699 26.284240723 65.992797852
          272.95941162 240.61795044 75.037902832 273.6991272 278.34393311 74.722297668
          108.62197876 99.3621521 26.976299286 105.0435791 50.969417572 32.526000977
        </DataArray>
      </Points>
      <Cells>
        <DataArray type="Int64" Name="connectivity" format="ascii" RangeMin="0" RangeMax="375">
          89 124 1 123 125 302
          126 127 302 123 302 89
          2 125 123 127 3 124
          125 0 126 302 125 126
          127 124 302 302 124 89
          135 10 130 303 130 129
          129 128 306 133 304 132
          131 306 9 129 304 303
          135 130 305 132 131 11
          129 306 304 306 128 9
          134 305 133 12 305 134
          305 303 133 133 303 304
          12 135 305 305 130 303
          132 306 131 132 304 306
          139 138 15 140 308 139
          138 136 13 138 308 307
          307 137 136 141 14 137
          141 307 308 141 308 140
          4 141 140 141 137 307
          138 307 136 138 139 308
          146 19 6 310 147 148
          149 18 145 311 147 310
          146 6 311 143 309 142
          144 310 143 309 149 145
          17 146 144 6 147 311
          146 311 144 311 310 144
          309 148 149 16 142 145
          309 145 142 310 148 309
          143 310 309 108 5 153
          312 152 313 156 157 313
          107 312 157 312 153 152
          154 150 7 108 312 107
          151 314 313 155 154 23
          155 314 154 151 150 314
          313 152 151 8 108 107
          108 153 312 314 150 154
          156 313 314 156 314 155
          313 157 312 171 25 164
          167 166 26 316 162 165
          170 171 317 27 170 169
          165 162 24 163 162 316
          163 316 315 317 315 321
          317 321 320 317 171 315
          169 170 320 316 165 318
          169 320 168 320 321 319
          321 315 316 320 319 168
          171 164 315 315 164 163
          318 165 166 319 318 166
          167 319 166 168 319 167
          320 170 317 321 316 318
          319 321 318 174 175 323
          120 119 322 322 119 122
          36 175 174 122 119 33
          172 173 322 174 323 173
          323 121 120 35 172 122
          175 34 121 172 322 122
          323 175 121 322 323 120
          322 173 323 176 178 37
          325 183 324 182 183 325
          38 180 177 183 179 324
          327 181 182 325 326 327
          179 183 39 177 327 326
          325 327 182 181 40 182
          326 325 324 179 178 324
          324 178 176 326 324 176
          177 326 176 177 180 327
          327 180 181 185 188 330
          191 22 187 184 186 20
          330 188 328 21 188 185
          328 329 330 331 190 191
          328 331 329 188 189 328
          189 41 190 329 187 186
          189 190 331 189 331 328
          185 330 184 329 186 330
          330 186 184 331 191 187
          329 331 187 198 335 197
          193 192 333 197 196 44
          45 200 199 195 192 42
          201 43 194 196 335 195
          199 200 332 333 192 195
          196 197 335 332 200 201
          199 332 198 335 333 195
          334 201 194 334 194 193
          333 334 193 332 201 334
          332 334 333 198 332 335
          333 335 332 210 337 209
          211 47 205 336 337 204
          336 204 203 209 336 208
          206 202 46 211 337 210
          336 203 338 337 336 209
          211 205 337 48 207 206
          337 205 204 338 203 202
          28 211 210 206 338 202
          207 208 338 206 207 338
          338 208 336 344 339 341
          220 221 339 217 216 31
          220 339 219 215 212 29
          341 214 213 218 344 343
          218 219 344 339 214 341
          217 340 216 344 219 339
          32 220 219 221 30 214
          339 221 214 342 341 213
          343 342 340 340 212 215
          216 340 215 213 212 342
          342 212 340 343 341 342
          343 340 217 218 343 217
          343 344 341 161 345 347
          50 161 347 345 160 159
          346 160 345 50 347 158
          346 345 101 102 51 346
          346 51 160 345 159 347
          161 101 345 52 346 101
          52 102 346 347 159 49
          158 347 49 54 235 233
          223 222 232 231 234 53
          237 223 236 235 223 233
          231 232 222 222 237 238
          238 55 234 235 236 223
          235 56 236 237 222 223
          222 238 234 231 222 234
          233 223 232 247 224 225
          225 246 247 66 247 246
          225 245 65 246 225 65
          253 254 229 228 229 230
          227 256 257 248 251 67
          227 226 228 252 257 69
          230 254 255 228 230 227
          68 253 250 250 253 229
          254 70 255 250 229 249
          230 255 256 228 226 251
          248 228 251 248 249 228
          229 254 230 251 226 252
          229 228 249 227 257 252
          226 227 252 227 230 256
          349 82 78 77 260 78
          258 78 82 75 77 258
          258 77 78 79 262 261
          260 261 349 258 82 259
          350 265 264 348 80 76
          263 265 350 350 264 351
          82 348 259 263 81 265
          263 350 262 350 349 262
          259 348 76 260 349 78
          349 261 262 349 350 351
          351 264 80 349 351 82
          348 351 80 82 351 348
          84 266 71 352 85 71
          84 353 83 71 85 353
          113 352 114 266 352 71
          84 71 353 267 93 355
          91 90 88 97 74 92
          97 92 96 74 96 93
          116 115 354 354 115 117
          74 97 96 92 268 96
          93 96 270 355 93 94
          91 116 95 116 354 95
          269 90 91 91 88 116
          267 74 93 267 355 118
          94 95 355 117 115 87
          73 267 118 270 96 268
          93 270 94 270 268 269
          269 91 270 270 91 95
          94 270 95 355 95 354
          117 355 354 117 118 355
          272 359 271 358 357 84
          99 273 272 271 356 98
          273 359 272 84 71 359
          71 85 356 85 86 356
          356 86 98 71 357 85
          84 357 71 273 84 359
          359 71 356 359 356 271
          368 96 284 96 97 284
          369 277 278 369 278 91
          275 283 58 91 278 88
          96 106 97 57 277 274
          88 278 62 91 88 62
          96 286 106 285 270 91
          286 96 270 371 274 277
          371 369 368 275 370 283
          285 286 270 270 96 368
          285 91 62 270 368 369
          270 369 91 371 277 369
          368 284 370 370 284 283
          370 371 368 370 275 371
          371 275 274 78 82 110
          78 372 290 78 77 372
          78 291 77 289 372 373
          372 77 280 291 63 77
          291 78 110 63 279 77
          290 82 78 288 373 287
          77 279 280 287 282 64
          373 282 287 109 288 287
          288 289 373 372 280 281
          289 290 372 373 372 281
          373 281 282 111 293 292
          374 74 93 95 292 94
          94 374 93 105 244 293
          244 74 374 292 293 374
          94 292 374 374 293 244
          295 112 294 94 294 95
          243 375 93 295 375 243
          243 104 295 295 294 375
          74 243 93 375 294 94
          93 375 94 360 296 363
          361 366 367 240 361 241
          242 296 103 100 59 239
          360 297 296 363 296 242
          365 301 300 361 362 366
          60 276 365 298 360 299
          276 61 301 297 298 72
          366 365 364 366 362 365
          298 297 360 361 367 363
          60 365 362 300 299 364
          59 60 362 59 362 239
          239 362 240 362 361 240
          241 361 363 241 363 242
          276 301 365 364 360 367
          364 299 360 364 365 300
          367 366 364 367 360 363
        </DataArray>
        <DataArray type="Int64" Name="offsets" format="ascii" RangeMin="3" RangeMax="1314">
          3 6 9 12 15 18
          21 24 27 30 33 36
          39 42 45 48 51 54
          57 60 63 66 69 72
          75 78 81 84 87 90
          93 96 99 102 105 108
          111 114 117 120 123 126
          129 132 135 138 141 144
          147 150 153 156 159 162
          165 168 171 174 177 180
          183 186 189 192 195 198
          201 204 207 210 213 216
          219 222 225 228 231 234
          237 240 243 246 249 252
          255 258 261 264 267 270
          273 276 279 282 285 288
          291 294 297 300 303 306
          309 312 315 318 321 324
          327 330 333 336 339 342
          345 348 351 354 357 360
          363 366 369 372 375 378
          381 384 387 390 393 396
          399 402 405 408 411 414
          417 420 423 426 429 432
          435 438 441 444 447 450
          453 456 459 462 465 468
          471 474 477 480 483 486
          489 492 495 498 501 504
          507 510 513 516 519 522
          525 528 531 534 537 540
          543 546 549 552 555 558
          561 564 567 570 573 576
          579 582 585 588 591 594
          597 600 603 606 609 612
          615 618 621 624 627 630
          633 636 639 642 645 648
          651 654 657 660 663 666
          669 672 675 678 681 684
          687 690 693 696 699 702
          705 708 711 714 717 720
          723 726 729 732 735 738
          741 744 747 750 753 756
          759 762 765 768 771 774
          777 780 783 786 789 792
          795 798 801 804 807 810
          813 816 819 822 825 828
          831 834 837 840 843 846
          849 852 855 858 861 864
          867 870 873 876 879 882
          885 888 891 894 897 900
          903 906 909 912 915 918
          921 924 927 930 933 936
          939 942 945 948 951 954
          957 960 963 966 969 972
          975 978 981 984 987 990
          993 996 999 1002 1005 1008
          1011 1014 1017 1020 1023 1026
          1029 1032 1035 1038 1041 1044
          1047 1050 1053 1056 1059 1062
          1065 1068 1071 1074 1077 1080
          1083 1086 1089 1092 1095 1098
          1101 1104 1107 1110 1113 1116
          1119 1122 1125 1128 1131 1134
          1137 1140 1143 1146 1149 1152
          1155 1158 1161 1164 1167 1170
          1173 1176 1179 1182 1185 1188
          1191 1194 1197 1200 1203 1206
          1209 1212 1215 1218 1221 1224
          1227 1230 1233 1236 1239 1242
          1245 1248 1251 1254 1257 1260
          1263 1266 1269 1272 1275 1278
          1281 1284 1287 1290 1293 1296
          1299 1302 1305 1308 1311 1314
        </DataArray>
        <DataArray type="UInt8" Name="types" format="ascii" RangeMin="5" RangeMax="5">
          5 5 5 5 5 5
          5 5 5 5 5 5
          5 5 5 5 5 5
          5 5 5 5 5 5
          5 5 5 5 5 5
          5 5 5 5 5 5
          5 5 5 5 5 5
          5 5 5 5 5 5
          5 5 5 5 5 5
          5 5 5 5 5 5
          5 5 5 5 5 5
          5 5 5 5 5 5
          5 5 5 5 5 5
          5 5 5 5 5 5
          5 5 5 5 5 5
          5 5 5 5 5 5
          5 5 5 5 5 5
          5 5 5 5 5 5
          5 5 5 5 5 5
          5 5 5 5 5 5
          5 5 5 5 5 5
          5 5 5 5 5 5
          5 5 5 5 5 5
          5 5 5 5 5 5
          5 5 5 5 5 5
          5 5 5 5 5 5
          5 5 5 5 5 5
          5 5 5 5 5 5
          5 5 5 5 5 5
          5 5 5 5 5 5
          5 5 5 5 5 5
          5 5 5 5 5 5
          5 5 5 5 5 5
          5 5 5 5 5 5
          5 5 5 5 5 5
          5 5 5 5 5 5
          5 5 5 5 5 5
          5 5 5 5 5 5
          5 5 5 5 5 5
          5 5 5 5 5 5
          5 5 5 5 5 5
          5 5 5 5 5 5
          5 5 5 5 5 5
          5 5 5 5 5 5
          5 5 5 5 5 5
          5 5 5 5 5 5
          5 5 5 5 5 5
          5 5 5 5 5 5
          5 5 5 5 5 5
          5 5 5 5 5 5
          5 5 5 5 5 5
          5 5 5 5 5 5
          5 5 5 5 5 5
          5 5 5 5 5 5
          5 5 5 5 5 5
          5 5 5 5 5 5
          5 5 5 5 5 5
          5 5 5 5 5 5
          5 5 5 5 5 5
          5 5 5 5 5 5
          5 5 5 5 5 5
          5 5 5 5 5 5
          5 5 5 5 5 5
          5 5 5 5 5 5
          5 5 5 5 5 5
          5 5 5 5 5 5
          5 5 5 5 5 5
          5 5 5 5 5 5
          5 5 5 5 5 5
          5 5 5 5 5 5
          5 5 5 5 5 5
          5 5 5 5 5 5
          5 5 5 5 5 5
        </DataArray>
      </Cells>
    </Piece>
  </UnstructuredGrid>
</VTKFile>
