<?xml version="1.0"?>
<VTKFile type="UnstructuredGrid" version="0.1" byte_order="LittleEndian" header_type="UInt32" compressor="vtkZLibDataCompressor">
  <UnstructuredGrid>
    <Piece NumberOfPoints="800" NumberOfCells="1505">
      <PointData>
      </PointData>
      <CellData>
        <DataArray type="Float64" Name="Partition" format="ascii" RangeMin="1" RangeMax="1">
          1 1 1 1 1 1
          1 1 1 1 1 1
          1 1 1 1 1 1
          1 1 1 1 1 1
          1 1 1 1 1 1
          1 1 1 1 1 1
          1 1 1 1 1 1
          1 1 1 1 1 1
          1 1 1 1 1 1
          1 1 1 1 1 1
          1 1 1 1 1 1
          1 1 1 1 1 1
          1 1 1 1 1 1
          1 1 1 1 1 1
          1 1 1 1 1 1
          1 1 1 1 1 1
          1 1 1 1 1 1
          1 1 1 1 1 1
          1 1 1 1 1 1
          1 1 1 1 1 1
          1 1 1 1 1 1
          1 1 1 1 1 1
          1 1 1 1 1 1
          1 1 1 1 1 1
          1 1 1 1 1 1
          1 1 1 1 1 1
          1 1 1 1 1 1
          1 1 1 1 1 1
          1 1 1 1 1 1
          1 1 1 1 1 1
          1 1 1 1 1 1
          1 1 1 1 1 1
          1 1 1 1 1 1
          1 1 1 1 1 1
          1 1 1 1 1 1
          1 1 1 1 1 1
          1 1 1 1 1 1
          1 1 1 1 1 1
          1 1 1 1 1 1
          1 1 1 1 1 1
          1 1 1 1 1 1
          1 1 1 1 1 1
          1 1 1 1 1 1
          1 1 1 1 1 1
          1 1 1 1 1 1
          1 1 1 1 1 1
          1 1 1 1 1 1
          1 1 1 1 1 1
          1 1 1 1 1 1
          1 1 1 1 1 1
          1 1 1 1 1 1
          1 1 1 1 1 1
          1 1 1 1 1 1
          1 1 1 1 1 1
          1 1 1 1 1 1
          1 1 1 1 1 1
          1 1 1 1 1 1
          1 1 1 1 1 1
          1 1 1 1 1 1
          1 1 1 1 1 1
          1 1 1 1 1 1
          1 1 1 1 1 1
          1 1 1 1 1 1
          1 1 1 1 1 1
          1 1 1 1 1 1
          1 1 1 1 1 1
          1 1 1 1 1 1
          1 1 1 1 1 1
          1 1 1 1 1 1
          1 1 1 1 1 1
          1 1 1 1 1 1
          1 1 1 1 1 1
          1 1 1 1 1 1
          1 1 1 1 1 1
          1 1 1 1 1 1
          1 1 1 1 1 1
          1 1 1 1 1 1
          1 1 1 1 1 1
          1 1 1 1 1 1
          1 1 1 1 1 1
          1 1 1 1 1 1
          1 1 1 1 1 1
          1 1 1 1 1 1
          1 1 1 1 1 1
          1 1 1 1 1 1
          1 1 1 1 1 1
          1 1 1 1 1 1
          1 1 1 1 1 1
          1 1 1 1 1 1
          1 1 1 1 1 1
          1 1 1 1 1 1
          1 1 1 1 1 1
          1 1 1 1 1 1
          1 1 1 1 1 1
          1 1 1 1 1 1
          1 1 1 1 1 1
          1 1 1 1 1 1
          1 1 1 1 1 1
          1 1 1 1 1 1
          1 1 1 1 1 1
          1 1 1 1 1 1
          1 1 1 1 1 1
          1 1 1 1 1 1
          1 1 1 1 1 1
          1 1 1 1 1 1
          1 1 1 1 1 1
          1 1 1 1 1 1
          1 1 1 1 1 1
          1 1 1 1 1 1
          1 1 1 1 1 1
          1 1 1 1 1 1
          1 1 1 1 1 1
          1 1 1 1 1 1
          1 1 1 1 1 1
          1 1 1 1 1 1
          1 1 1 1 1 1
          1 1 1 1 1 1
          1 1 1 1 1 1
          1 1 1 1 1 1
          1 1 1 1 1 1
          1 1 1 1 1 1
          1 1 1 1 1 1
          1 1 1 1 1 1
          1 1 1 1 1 1
          1 1 1 1 1 1
          1 1 1 1 1 1
          1 1 1 1 1 1
          1 1 1 1 1 1
          1 1 1 1 1 1
          1 1 1 1 1 1
          1 1 1 1 1 1
          1 1 1 1 1 1
          1 1 1 1 1 1
          1 1 1 1 1 1
          1 1 1 1 1 1
          1 1 1 1 1 1
          1 1 1 1 1 1
          1 1 1 1 1 1
          1 1 1 1 1 1
          1 1 1 1 1 1
          1 1 1 1 1 1
          1 1 1 1 1 1
          1 1 1 1 1 1
          1 1 1 1 1 1
          1 1 1 1 1 1
          1 1 1 1 1 1
          1 1 1 1 1 1
          1 1 1 1 1 1
          1 1 1 1 1 1
          1 1 1 1 1 1
          1 1 1 1 1 1
          1 1 1 1 1 1
          1 1 1 1 1 1
          1 1 1 1 1 1
          1 1 1 1 1 1
          1 1 1 1 1 1
          1 1 1 1 1 1
          1 1 1 1 1 1
          1 1 1 1 1 1
          1 1 1 1 1 1
          1 1 1 1 1 1
          1 1 1 1 1 1
          1 1 1 1 1 1
          1 1 1 1 1 1
          1 1 1 1 1 1
          1 1 1 1 1 1
          1 1 1 1 1 1
          1 1 1 1 1 1
          1 1 1 1 1 1
          1 1 1 1 1 1
          1 1 1 1 1 1
          1 1 1 1 1 1
          1 1 1 1 1 1
          1 1 1 1 1 1
          1 1 1 1 1 1
          1 1 1 1 1 1
          1 1 1 1 1 1
          1 1 1 1 1 1
          1 1 1 1 1 1
          1 1 1 1 1 1
          1 1 1 1 1 1
          1 1 1 1 1 1
          1 1 1 1 1 1
          1 1 1 1 1 1
          1 1 1 1 1 1
          1 1 1 1 1 1
          1 1 1 1 1 1
          1 1 1 1 1 1
          1 1 1 1 1 1
          1 1 1 1 1 1
          1 1 1 1 1 1
          1 1 1 1 1 1
          1 1 1 1 1 1
          1 1 1 1 1 1
          1 1 1 1 1 1
          1 1 1 1 1 1
          1 1 1 1 1 1
          1 1 1 1 1 1
          1 1 1 1 1 1
          1 1 1 1 1 1
          1 1 1 1 1 1
          1 1 1 1 1 1
          1 1 1 1 1 1
          1 1 1 1 1 1
          1 1 1 1 1 1
          1 1 1 1 1 1
          1 1 1 1 1 1
          1 1 1 1 1 1
          1 1 1 1 1 1
          1 1 1 1 1 1
          1 1 1 1 1 1
          1 1 1 1 1 1
          1 1 1 1 1 1
          1 1 1 1 1 1
          1 1 1 1 1 1
          1 1 1 1 1 1
          1 1 1 1 1 1
          1 1 1 1 1 1
          1 1 1 1 1 1
          1 1 1 1 1 1
          1 1 1 1 1 1
          1 1 1 1 1 1
          1 1 1 1 1 1
          1 1 1 1 1 1
          1 1 1 1 1 1
          1 1 1 1 1 1
          1 1 1 1 1 1
          1 1 1 1 1 1
          1 1 1 1 1 1
          1 1 1 1 1 1
          1 1 1 1 1 1
          1 1 1 1 1 1
          1 1 1 1 1 1
          1 1 1 1 1 1
          1 1 1 1 1 1
          1 1 1 1 1 1
          1 1 1 1 1 1
          1 1 1 1 1 1
          1 1 1 1 1 1
          1 1 1 1 1 1
          1 1 1 1 1 1
          1 1 1 1 1 1
          1 1 1 1 1 1
          1 1 1 1 1 1
          1 1 1 1 1 1
          1 1 1 1 1 1
          1 1 1 1 1 1
          1 1 1 1 1 1
          1 1 1 1 1 1
          1 1 1 1 1 1
          1 1 1 1 1
        </DataArray>
      </CellData>
      <Points>
        <DataArray type="Float32" Name="Points" NumberOfComponents="3" format="ascii" RangeMin="399.02428321" RangeMax="1104.1902137">
          499.81640625 172.91744995 0 502.52407837 295.03338623 -0
          551.20379639 309.85784912 100 532.5647583 400.83642578 100
          957.57904053 219.74385071 0 955.28320312 304.38739014 0
          976.46600342 278.2699585 0 980.45617676 442.01699829 0
          526.23535156 41.413703918 100 977.82141113 52.18963623 100
          966.32116699 180.57658386 100 746.19580078 516.45446777 0
          836.84020996 507.44692993 -0 722.18237305 141.73371887 0
          708.15039062 268.92990112 0 682.33831787 43.266174316 100
          664.80596924 178.29333496 100 855.91552734 118.27590179 4.3368102409e-19
          866.04510498 1.8434180021 4.3368102409e-19 530.98083496 181.85292053 -0
          613.04632568 189.05168152 0 512.47241211 408.58947754 100
          522.97418213 29.135627747 0 910.21313477 127.1872406 -0
          417.79891968 43.729393005 0 816.53411865 142.46955872 0
          948.67102051 120.91342163 -0 836.42749023 139.22425842 0
          848.88623047 137.19180298 0 480.806427 84.257064819 0
          476.81231689 177.18002319 3.2346700593e-30 512.72875977 160.29029846 100
          579.42230225 375.46548462 1.5265100382e-12 672.39001465 369.42608643 1.5347700324e-12
          619.04962158 372.89120483 -4.0389697607e-28 578.38116455 65.867538452 0
          576.05181885 151.09655762 0 465.62310791 146.54194641 8.7012097831e-13
          423.69708252 -1.669775429e-13 100 423.69708252 2.5243548967e-29 46.948501587
          461.37445068 123.61463165 100 897.43731689 243.34686279 100
          747.24536133 248.53936768 100 814.18981934 278.09255981 -0
          813.53063965 409.32116699 0 505.68899536 451.19250488 -0
          500.49331665 203.44642639 -0 501.17022705 233.97541809 0
          501.84716797 264.50439453 0 820.52111816 68.799209595 100
          761.98077393 63.055633545 100 707.21124268 57.68201828 100
          881.57244873 464.70718384 0 739.45556641 424.13586426 100
          728.19134521 424.40786743 100 559.79064941 428.4744873 100
          762.95465088 0 100 762.95465088 0 16.317399979
          761.70428467 80.955696106 100 1000 3.1115919303e-13 1.0002000351e-27
          1000 -1.02836737e-14 100 727.77160645 404.84594727 100
          963.94317627 27.781881332 100 805.19708252 5.3371610641 100
          833.34979248 139.72633362 2.8271098803e-29 737.07861328 440.56863403 0
          717.62670898 441.32989502 2.4318300625e-29 737.84191895 435.23754883 2.5109299613e-29
          783.2053833 438.76342773 2.6921298764e-29 856.52947998 435.89382935 2.9831800207e-29
          788.57189941 299.49768066 2.6834499509e-29 609.06591797 17.433807373 1.9085899545e-29
          774.57891846 16.825187683 2.5668300779e-29 514.80755615 509.73266602 -0
          791.25091553 65.92742157 100 734.5960083 60.368824005 100
          776.4105835 513.45196533 0 806.62542725 510.44943237 -0
          544.99078369 340.18405151 100 538.777771 370.51022339 100
          977.26403809 311.01937866 0 978.06207275 343.76876831 0
          978.86010742 376.51818848 0 979.65814209 409.26757812 0
          974.9463501 84.286376953 100 972.07128906 116.38311005 100
          969.19622803 148.47984314 100 558.33599854 184.25250244 0
          585.69116211 186.65209961 0 718.67437744 173.53276062 0
          715.16638184 205.33180237 0 711.6583252 237.13085938 0
          678.83184814 70.271606445 100 675.32537842 97.277038574 100
          671.81890869 124.2824707 100 668.31243896 151.28790283 100
          956.8137207 247.95835876 0 956.04846191 276.17288208 0
          496.68035889 32.784069061 -0 470.38653564 36.432510376 0
          444.09274292 40.080951691 0 879.54968262 132.18952942 0
          479.47506714 115.23137665 0 478.14367676 146.20570374 -2.122230053e-29
          522.85870361 71.132850647 100 519.48205566 100.85201263 100
          516.10540771 130.57115173 100 645.7197876 371.15863037 1.730400003e-12
          577.60473633 94.27721405 0 576.82824707 122.68688202 0
          666.79931641 2.1850952308e-13 7.0809298855e-28 636.50830078 2.1008683074e-13 6.8153797759e-28
          606.21734619 2.0166412485e-13 6.5498301477e-28 575.9263916 1.9324143251e-13 6.2842800381e-28
          545.63543701 1.8481874017e-13 6.0187299285e-28 515.34442139 1.7639603428e-13 5.7531798188e-28
          485.0534668 1.6797334194e-13 5.4876301907e-28 454.76248169 1.595506496e-13 5.2220800811e-28
          424.4715271 1.5112794371e-13 4.9565299715e-28 970.36932373 -1.8522767413e-14 100
          940.73864746 -2.6761860279e-14 100 911.10797119 -3.5000953145e-14 100
          881.47729492 -4.3240046011e-14 100 851.84667969 -5.1479138877e-14 100
          822.21600342 -5.9718235131e-14 100 792.58532715 -6.7957324609e-14 100
          732.11303711 -8.4772222879e-14 100 701.27148438 -9.3348024894e-14 100
          670.42987061 -1.0192382691e-13 100 639.58825684 -1.1049964248e-13 100
          608.74664307 -1.1907543094e-13 100 577.90509033 -1.2765123973e-13 100
          547.06347656 -1.3622704852e-13 100 516.22186279 -1.4480284376e-13 100
          485.38027954 -1.5337865255e-13 100 454.53866577 -1.6195444779e-13 100
          858.44793701 89.167778015 4.3368102409e-19 860.98028564 60.059658051 4.3368102409e-19
          863.51269531 30.951538086 4.3368102409e-19 867.39892578 244.38536072 100
          837.36053467 245.42385864 100 807.32214355 246.46235657 100
          777.28375244 247.50086975 100 814.02502441 310.89971924 0
          813.86022949 343.70687866 -0 813.69543457 376.51400757 -0
          728.79876709 452.7159729 100 729.40618896 481.02407837 100
          932.19396973 23.292938232 100 900.44476318 18.803993225 100
          868.69549561 14.315049171 100 836.94628906 9.8261051178 100
          729.25634766 495.19894409 2.4897099749e-29 733.16748047 467.88378906 2.4993700182e-29
          760.14202881 439.66601562 2.6005901252e-29 819.86743164 437.32861328 2.8376501337e-29
          784.27868652 410.91027832 2.6903899191e-29 785.35198975 383.05712891 2.6886598923e-29
          786.42529297 355.20397949 2.686919935e-29 787.49859619 327.35083008 2.6851799776e-29
          636.65142822 17.332370758 2.0182900214e-29 664.23693848 17.230934143 2.1280000188e-29
          691.82244873 17.129497528 2.2377100162e-29 719.40789795 17.028060913 2.3474099326e-29
          746.9934082 16.926624298 2.45711993e-29 510.24829102 480.46258545 0
          1000 42.884952545 73.70110321 1000 228.20391846 74.602897644
          1000 350.38763428 74.237998962 1000 137.08869934 74.26309967
          1000 75.606430054 74.528900146 1000 197.70381165 74.639198303
          881.13140869 491.5526123 0 700.12457275 425.08563232 100
          672.05780029 425.76339722 100 643.9909668 426.44116211 100
          615.92419434 427.118927 100 587.85742188 427.79669189 100
          762.95465088 0 72.105796814 762.95465088 0 44.211601257
          762.4677124 31.527814865 100 502.63778687 492.37023926 100
          536.00524902 497.181427 100 569.3727417 501.99258423 100
          1000 2.0401157163e-13 33.333301544 1000 9.6863950238e-14 66.666702271
          969.70904541 3.0273648714e-13 9.7364396485e-28 939.41802979 2.9431380835e-13 9.4708895388e-28
          909.1270752 2.8589110246e-13 9.2053403922e-28 878.83612061 2.7746839657e-13 8.9397902825e-28
          848.54516602 2.6904571778e-13 8.6742401729e-28 818.25415039 2.6062301189e-13 8.4086900633e-28
          787.9631958 2.5220030599e-13 8.1431399537e-28 757.67224121 2.4377762721e-13 7.8775802144e-28
          727.38122559 2.3535492132e-13 7.6120301048e-28 697.090271 2.2693221542e-13 7.3464799951e-28
          1000 411.26776123 74.271896362 1000 407.24069214 24.764099121
          1000 437.41848755 24.757799149 1000 59.457862854 50.145801544
          1000 151.74745178 49.202999115 1000 181.80880737 49.566501617
          1000 211.83787537 49.958400726 1000 455.4677124 49.112300873
          1000 90.762496948 49.500701904 1000 121.35162354 49.27740097
          1000 242.6287384 49.451301575 1000 273.18490601 49.220600128
          1000 303.59310913 49.163398743 1000 333.9621582 49.152999878
          1000 364.32434082 49.150600433 1000 394.66772461 49.159999847
          1000 424.97171021 49.189998627 755.62207031 459.62994385 100
          468.47988892 35.357139587 100 654.22875977 25.010011673 100
          394.45309448 -1.7866182709e-13 100 423.69708252 -8.5265128291e-14 73.47429657
          1000 30.494884491 100 1000 60.989768982 100
          1000 91.484649658 100 1000 121.97953796 100
          1000 152.47441101 100 1000 182.96929932 100
          1000 213.46418762 100 1000 243.95907593 100
          1000 274.45394897 100 1000 304.94882202 100
          1000 335.44372559 100 1000 365.93859863 100
          1000 396.4335022 100 1000 426.92837524 100
          1000 457.42324829 100 1000 30.018867493 0
          1000 60.037734985 0 1000 90.056602478 0
          1000 120.07546997 0 1000 150.09434509 0
          1000 180.11320496 0 1000 210.13206482 0
          1000 240.15093994 0 1000 270.1697998 0
          1000 300.18869019 0 1000 330.20755005 0
          1000 360.22640991 0 1000 390.24526978 0
          1000 420.26412964 0 433.11642456 30.903657913 100
          442.5357666 61.807315826 100 451.95510864 92.710975647 100
          478.14608765 211.11668396 100 884.19158936 216.28421021 100
          835.82305908 193.22315979 100 529.15075684 431.65029907 100
          793.18829346 272.96026611 100 587.2479248 478.66467285 100
          421.77752686 84.370048523 100 539.84790039 149.05828857 100
          761.21228027 222.37413025 100 543.30993652 119.03727722 100
          948.35351562 305.275177 100 432.07913208 110.04064941 100
          915.75268555 269.87054443 100 757.24987793 493.5098877 100
          648.49694824 107.18847656 100 859.73370361 66.780273438 100
          626.2097168 65.50919342 100 407.17306519 50.770046234 100
          674.36480713 478.32174683 100 757.36560059 109.84780121 100
          474.3359375 275.17703247 100 946.64587402 276.22390747 100
          498.83203125 434.80892944 100 696.01269531 140.27694702 100
          567.22210693 394.75857544 100 529.18817139 309.41864014 1.6538199669e-29
          899.16070557 302.19430542 3.1239200597e-29 554.70178223 261.63430786 1.7449999604e-29
          663.47424316 172.89723206 2.1585400015e-29 605.61083984 516.94116211 2.0025599885e-29
          892.0760498 179.3939209 3.0692600614e-29 792.27667236 201.64883423 2.6770799376e-29
          620.38989258 426.82562256 2.0419199781e-29 650.54931641 97.068107605 2.0907699874e-29
          698.08514404 119.86990356 2.2847699639e-29 571.46459961 403.90332031 1.8423599321e-29
          559.77679443 473.44049072 1.8108700747e-29 674.62579346 316.53839111 2.2338700429e-29
          523.215271 430.58822632 1.6561900644e-29 652.98754883 430.00689697 2.172269926e-29
          681.84448242 453.12786865 2.2920400486e-29 924.82366943 346.887146 3.2356399456e-29
          789.48297119 230.79512024 2.6722500664e-29 901.12255859 247.65289307 3.1199598663e-29
          581.34606934 242.68754578 1.846900011e-29 678.93786621 96.038619995 2.2034699911e-29
          777.32250977 67.763595581 2.5887200773e-29 895.00054932 360.99911499 3.1200501443e-29
          838.89703369 230.97729492 2.8688498979e-29 903.36627197 421.61654663 3.1664000558e-29
          705.66900635 332.81155396 2.3608599954e-29 656.34869385 261.98208618 2.1493999593e-29
          766.66906738 99.686019897 2.5532300033e-29 666.86932373 122.72577667 2.1612200534e-29
          815.03765869 214.07969666 2.7703000627e-29 591.31799316 429.80874634 1.9269199927e-29
          655.9152832 146.39810181 2.1227500541e-29 632.3729248 452.44842529 2.0951099502e-29
          876.97229004 261.95956421 3.0269798806e-29 896.89605713 212.61378479 3.0955998618e-29
          591.48461914 1.1636832719e-13 25.260900497 795.65380859 1.6310845903e-13 28.381500244
          530.79125977 1.0052879753e-13 24.938299179 924.91711426 2.0875903545e-13 25.361499786
          925.95343018 5.0812750952e-14 74.587799072 409.36517334 6.6427129097e-14 25.043399811
          864.05169678 1.9185906119e-13 25.353900909 682.24475098 1.3935228839e-13 25.961700439
          710.84490967 -1.530900752e-14 76.55039978 957.46099854 2.1490204364e-13 26.265600204
          654.00280762 -2.660522864e-14 75.147598267 651.91601562 1.3179661897e-13 25.688699722
          531.58288574 -5.8212562917e-14 74.390800476 438.86361694 7.0509434879e-14 26.325199127
          592.92785645 -4.2182762546e-14 74.710502625 474.73538208 -8.0664587423e-14 76.458000183
          469.27313232 7.7503406254e-14 26.779899597 971.50836182 1.4305897233e-13 49.830898285
          957.93383789 6.3342607797e-14 73.456199646 894.45074463 2.0057474561e-13 25.272100449
          895.91210938 4.1924407332e-14 74.754203796 866.10064697 3.3527498676e-14 74.787696838
          832.72979736 1.8143401007e-13 25.887699127 836.78027344 2.4373388304e-14 75.099197388
          732.74603271 5.2965607161e-14 57.204898834 741.85968018 1.5994489262e-13 24.712299347
          500.29489136 9.1128988307e-14 25.224500656 501.3805542 -6.7908867548e-14 74.794700623
          621.79071045 1.245455155e-13 25.338499069 713.04382324 1.4570728521e-13 26.648899078
          684.05792236 -1.956178546e-14 75.556297302 623.51739502 -3.4212199453e-14 74.876998901
          561.12939453 1.0839006965e-13 25.11700058 562.18725586 -5.0551326092e-14 74.654800415
          811.7935791 1.2153216022e-14 76.739402771 451.34347534 -3.1019711946e-14 58.990200043
          395.98669434 -1.4755457937e-14 49.141799927 576.90686035 3.2863475667e-14 49.978000641
          485.39056396 3.0689924326e-15 51.330501556 941.13366699 1.3475907944e-13 49.785400391
          607.48602295 4.1487548396e-14 49.940200806 667.80401611 5.4863143922e-14 50.996898651
          516.02148438 1.7080700596e-14 49.621101379 880.16772461 1.171470554e-13 49.990699768
          849.86993408 1.0727525232e-13 50.440898895 546.50305176 2.5770245584e-14 49.554599762
          910.22833252 1.2494081561e-13 50.166500092 698.402771 5.9846265855e-14 52.09349823
          637.60296631 4.800823164e-14 50.516899109 790.69989014 5.5366596588e-14 61.471199036
          819.7355957 9.3127376199e-14 52.235599518 1000 380.83572388 74.252197266
          1000 74.962043762 25.322999954 1000 289.43920898 74.251403809
          1000 28.755207062 50.159099579 1000 42.570114136 26.529899597
          1000 106.52802277 74.361999512 1000 105.49791718 24.88599968
          1000 135.72648621 24.78730011 1000 167.46214294 74.376602173
          1000 165.82582092 24.859500885 1000 195.75282288 25.1439991
          1000 225.93302917 25.129199982 1000 258.87463379 74.359397888
          1000 256.33377075 24.854400635 1000 286.56808472 24.775499344
          1000 319.88406372 74.266296387 1000 316.74804688 24.760499954
          1000 346.9173584 24.758199692 1000 377.08355713 24.758600235
          973.24658203 259.22131348 100 485.24908447 104.72528076 100
          602.30358887 453.57305908 100 503.0897522 381.74993896 100
          697.5067749 115.30927277 100 789.6282959 92.617752075 100
          719.58624268 31.370788574 100 763.14910889 274.02853394 100
          407.71914673 21.694314957 100 556.15093994 475.13986206 100
          694.41027832 398.04318237 100 851.98126221 218.54244995 100
          487.15261841 141.74290466 100 700.42089844 493.18972778 100
          522.45635986 465.31567383 100 473.51858521 71.453529358 100
          514.47967529 349.24511719 100 947.83087158 59.957138062 100
          821.48455811 219.92016602 100 692.42956543 168.38500977 100
          546.24346924 89.722129822 100 791.18164062 221.06460571 100
          717.54901123 89.430702209 100 498.98812866 26.211315155 100
          562.27508545 29.750782013 100 644.55249023 134.72799683 100
          847.51251221 39.072483063 100 814.95300293 35.863098145 100
          784.90332031 28.869119644 100 974.53118896 228.40193176 100
          974.02362061 350.68695068 100 974.02008057 381.18493652 100
          973.83636475 289.86483765 100 974.01831055 320.22137451 100
          974.00231934 442.17752075 100 974.0166626 411.68109131 100
          449.62069702 227.71043396 100 660.60058594 453.29858398 100
          630.92645264 453.39581299 100 522.09008789 319.08886719 100
          497.93450928 54.378364563 100 755.57318115 401.83355713 100
          651.34246826 80.552658081 100 592.65283203 26.893478394 100
          653.06719971 52.240085602 100 625.17889404 30.570148468 100
          883.93475342 270.24487305 100 944.36230469 129.79330444 100
          912.68109131 48.922809601 100 947.12823486 97.294166565 100
          695.72363281 458.06903076 100 573.63037109 452.98596191 100
          880.50646973 42.70558548 100 940.07781982 162.26986694 100
          600.71807861 400.43960571 100 805.20507812 194.24957275 100
          918.97955322 111.49997711 100 769.51062012 428.43981934 100
          630.96514893 400.16119385 100 568.14935303 360.90570068 100
          574.00512695 330.9888916 100 527.63684082 287.89096069 100
          579.25866699 55.562431335 100 499.10574341 80.729255676 100
          475.78955078 244.29075623 100 686.90484619 194.02156067 100
          483.48098755 175.50811768 100 733.00506592 275.26538086 100
          662.54193115 398.59140015 100 646.51654053 480.34713745 100
          616.91644287 480.45874023 100 551.00030518 60.967235565 100
          641.30340576 163.69947815 100 948.13702393 335.32382202 100
          940.50848389 243.13192749 100 947.9942627 426.91577148 100
          547.83532715 451.2958374 100 493.7059021 326.24209595 100
          472.30163574 304.83151245 100 948.03167725 396.42636108 100
          920.37371826 80.746131897 100 947.62799072 457.40795898 100
          742.98162842 379.72579956 100 853.52258301 271.12957764 100
          823.27496338 271.95892334 100 948.03857422 365.88793945 100
          891.20153809 71.084274292 100 722.23858643 156.91584778 100
          748.72857666 301.11752319 100 717.45385742 190.7504425 100
          724.78796387 126.29544067 100 785.03674316 402.51419067 100
          839.51678467 297.82009888 100 788.77185059 124.86273193 100
          871.17694092 92.995033264 100 628.36340332 91.86264801 100
          926.18463135 292.82888794 100 580.48901367 301.22311401 100
          788.79888916 507.425354 100 680.36010742 370.34970093 100
          897.76361084 95.896949768 100 663.79571533 208.41184998 100
          615.37561035 375.45043945 100 820.01647949 170.59629822 100
          566.94995117 137.99186707 100 507.36242676 194.7077179 100
          922.87976074 318.79046631 100 768.72589111 376.29064941 100
          498.88223267 296.60299683 100 557.68884277 279.39419556 100
          913.7411499 143.5479126 100 638.5838623 193.14923096 100
          868.17736816 189.25634766 100 646.72070312 373.58517456 100
          818.46807861 103.57341766 100 731.13140869 222.25036621 100
          901.55682373 296.60845947 100 936.51373291 190.15490723 100
          784.95758057 478.2081604 100 569.9362793 107.23872375 100
          621.53430176 116.05700684 100 603.88079834 52.373233795 100
          617.44580078 146.4059906 100 504.01809692 230.51838684 100
          535.27099609 180.88589478 100 773.57147217 196.05215454 100
          952.2444458 209.59642029 100 589.39813232 377.13204956 100
          596.52416992 352.46533203 100 809.16485596 298.45733643 100
          921.72540283 349.93661499 100 502.21087646 264.28952026 100
          716.91888428 249.4828949 100 569.19549561 80.53453064 100
          918.64801025 214.72306824 100 779.02679443 299.52243042 100
          919.13647461 472.05001831 100 921.7387085 441.81100464 100
          921.97662354 411.60003662 100 870.95947266 298.31427002 100
          921.9510498 381.03393555 100 818.06213379 491.39385986 100
          825.44488525 324.08920288 100 798.74591064 375.87350464 100
          696.15667725 222.42222595 100 783.16052246 451.99023438 100
          628.12524414 348.52770996 100 534.31359863 252.23408508 100
          823.29138184 138.80979919 100 717.54888916 303.4992981 100
          593.9732666 126.27900696 100 588.77935791 271.36450195 100
          848.30187988 164.89537048 100 788.16455078 163.68270874 100
          598.77380371 87.676773071 100 755.76177979 142.62489319 100
          604.84771729 323.77606201 100 750.89117432 354.12231445 100
          906.52746582 182.27981567 100 717.54229736 367.70172119 100
          798.95452881 431.519104 100 884.13104248 121.66043854 100
          843.54553223 89.054222107 100 881.8894043 482.77941895 100
          764.74145508 326.46786499 100 530.83679199 214.84893799 100
          661.34216309 346.01196289 100 636.23376465 223.45730591 100
          614.36743164 176.67169189 100 897.12835693 454.19876099 100
          978.83630371 202.47463989 100 895.10375977 364.94500732 100
          563.00665283 169.08987427 100 749.37689209 174.76293945 100
          746.33312988 200.56910706 100 895.35650635 395.94030762 100
          702.70385742 276.07510376 100 795.09436035 324.82504272 100
          895.69134521 426.6505127 100 856.64099121 324.96875 100
          891.86999512 329.94226074 100 843.64904785 471.81915283 100
          689.65869141 251.98890686 100 864.62701416 378.12316895 100
          611.06152344 293.65985107 100 809.60266113 461.56747437 100
          590.36517334 158.04414368 100 610.99035645 207.09498596 100
          869.15332031 410.98538208 100 732.96716309 331.05136108 100
          848.9128418 114.04268646 100 781.41064453 350.99713135 100
          811.78564453 349.85427856 100 818.46008301 405.35437012 100
          880.97497559 156.22142029 100 569.18444824 249.15672302 100
          687.72259521 302.22961426 100 696.03833008 335.61825562 100
          640.33197021 317.22161865 100 664.74829102 238.89042664 100
          870.25256348 349.84133911 100 558.253479 200.7678833 100
          842.74145508 350.01660156 100 866.53894043 444.23968506 100
          605.65057373 240.89460754 100 615.734375 267.62506104 100
          857.25854492 139.17831421 100 845.2166748 397.91015625 100
          586.69763184 188.88883972 100 554.39056396 228.20979309 100
          830.07427979 439.8112793 100 845.63916016 420.51864624 100
          637.87158203 254.33863831 100 670.31573486 320.50015259 100
          829.89526367 375.39501953 100 669.32971191 272.7600708 100
          661.34143066 299.07128906 100 581.31829834 219.44075012 100
          638.96777344 283.79660034 100 757.84155273 490.44006348 2.6023800364e-29
          522.26422119 151.62695312 1.5922499426e-29 885.92260742 106.71459198 3.0291101397e-29
          603.23748779 109.16924286 1.9051899358e-29 760.98345947 310.29177856 2.5760300045e-29
          828.57946777 116.44059753 2.8031100848e-29 938.45349121 151.78739929 3.2477799247e-29
          973.47473145 74.352783203 3.3703900416e-29 951.13342285 25.519672394 3.2709900888e-29
          602.19189453 165.4302063 1.9131599756e-29 754.125 405.86849976 2.5693599675e-29
          735.97625732 257.31274414 2.4651400741e-29 633.90441895 399.06085205 2.089689962e-29
          596.31658936 347.40270996 1.9290299393e-29 533.42047119 214.53744507 1.6501900404e-29
          502.53561401 133.45596313 1.5098600138e-29 747.54473877 161.5045166 2.4904899765e-29
          657.49700928 344.25650024 2.1717100521e-29 513.94519043 59.999408722 1.5394000175e-29
          535.93005371 491.30001831 1.7198599542e-29 720.98760986 413.71148682 2.4392399274e-29
          839.7064209 327.75323486 2.8929399713e-29 929.62750244 261.51434326 3.2363399008e-29
          928.8112793 289.80249023 3.2391899762e-29 953.43914795 393.1914978 3.3594498567e-29
          845.02203369 162.88565063 2.8785301033e-29 738.98828125 224.53656006 2.4700499917e-29
          603.43261719 139.1645813 1.9124299278e-29 973.45843506 41.76227951 3.3632999111e-29