<?xml version="1.0"?>
<VTKFile type="UnstructuredGrid" version="0.1" byte_order="LittleEndian" header_type="UInt32" compressor="vtkZLibDataCompressor">
  <UnstructuredGrid>
    <Piece NumberOfPoints="454" NumberOfCells="548">
      <PointData>
      </PointData>
      <CellData>
        <DataArray type="Float64" Name="Partition" format="ascii" RangeMin="0" RangeMax="0">
          0 0 0 0 0 0
          0 0 0 0 0 0
          0 0 0 0 0 0
          0 0 0 0 0 0
          0 0 0 0 0 0
          0 0 0 0 0 0
          0 0 0 0 0 0
          0 0 0 0 0 0
          0 0 0 0 0 0
          0 0 0 0 0 0
          0 0 0 0 0 0
          0 0 0 0 0 0
          0 0 0 0 0 0
          0 0 0 0 0 0
          0 0 0 0 0 0
          0 0 0 0 0 0
          0 0 0 0 0 0
          0 0 0 0 0 0
          0 0 0 0 0 0
          0 0 0 0 0 0
          0 0 0 0 0 0
          0 0 0 0 0 0
          0 0 0 0 0 0
          0 0 0 0 0 0
          0 0 0 0 0 0
          0 0 0 0 0 0
          0 0 0 0 0 0
          0 0 0 0 0 0
          0 0 0 0 0 0
          0 0 0 0 0 0
          0 0 0 0 0 0
          0 0 0 0 0 0
          0 0 0 0 0 0
          0 0 0 0 0 0
          0 0 0 0 0 0
          0 0 0 0 0 0
          0 0 0 0 0 0
          0 0 0 0 0 0
          0 0 0 0 0 0
          0 0 0 0 0 0
          0 0 0 0 0 0
          0 0 0 0 0 0
          0 0 0 0 0 0
          0 0 0 0 0 0
          0 0 0 0 0 0
          0 0 0 0 0 0
          0 0 0 0 0 0
          0 0 0 0 0 0
          0 0 0 0 0 0
          0 0 0 0 0 0
          0 0 0 0 0 0
          0 0 0 0 0 0
          0 0 0 0 0 0
          0 0 0 0 0 0
          0 0 0 0 0 0
          0 0 0 0 0 0
          0 0 0 0 0 0
          0 0 0 0 0 0
          0 0 0 0 0 0
          0 0 0 0 0 0
          0 0 0 0 0 0
          0 0 0 0 0 0
          0 0 0 0 0 0
          0 0 0 0 0 0
          0 0 0 0 0 0
          0 0 0 0 0 0
          0 0 0 0 0 0
          0 0 0 0 0 0
          0 0 0 0 0 0
          0 0 0 0 0 0
          0 0 0 0 0 0
          0 0 0 0 0 0
          0 0 0 0 0 0
          0 0 0 0 0 0
          0 0 0 0 0 0
          0 0 0 0 0 0
          0 0 0 0 0 0
          0 0 0 0 0 0
          0 0 0 0 0 0
          0 0 0 0 0 0
          0 0 0 0 0 0
          0 0 0 0 0 0
          0 0 0 0 0 0
          0 0 0 0 0 0
          0 0 0 0 0 0
          0 0 0 0 0 0
          0 0 0 0 0 0
          0 0 0 0 0 0
          0 0 0 0 0 0
          0 0 0 0 0 0
          0 0 0 0 0 0
          0 0
        </DataArray>
      </CellData>
      <Points>
        <DataArray type="Float32" Name="Points" NumberOfComponents="3" format="ascii" RangeMin="733.86445189" RangeMax="1387.9842446">
          926.15344238 644.0592041 69.663002014 823.24127197 603.92687988 100
          824.88397217 521.24078369 9.3184900284 824.88397217 521.24078369 100
          823.24127197 603.92687988 9.3184900284 905.97424316 775.45123291 0
          905.97424316 775.45123291 69.663002014 769.14910889 572.50085449 0
          1000 701.38232422 42.272701263 990.72387695 805.77398682 42.272701263
          1000 701.38232422 100 990.72387695 805.77398682 100
          926.15344238 644.0592041 0 797.27679443 1000 0
          784.04486084 934.07476807 69.880302429 797.27679443 1000 69.880302429
          769.14910889 572.50085449 96.649002075 756.49536133 721.75292969 0
          756.49536133 721.75292969 96.649002075 746.19580078 516.45446777 0
          746.19580078 516.45446777 56.776599884 836.84020996 507.44692993 -0
          864.9753418 927.1305542 8.4799203873 996.01147461 939.45715332 8.4799203873
          864.9753418 927.1305542 100 996.01147461 939.45715332 100
          828.78265381 735.65441895 29.777799606 535.69818115 829.38031006 100
          784.04486084 934.07476807 0 741.81262207 811.39434814 100
          735.37805176 742.050354 62.254199982 735.37805176 742.050354 80.260398865
          880.24938965 545.24346924 0 838.86785889 550.97943115 0
          777.91467285 893.75195312 0 778.53234863 843.84710693 86.116600037
          779.56726074 760.23590088 0 779.56719971 760.23590088 86.116600037
          778.53234863 843.84710693 1.4732300043 567.2175293 858.52502441 0
          592.65570068 854.25439453 0 567.2175293 858.52502441 67.246696472
          648.69445801 844.84637451 67.246696472 648.69445801 844.84637451 0
          835.27789307 902.2388916 0 835.27789307 902.2388916 68.185203552
          830.64093018 1000 0 830.64093018 1000 68.185203552
          577.44781494 939.80877686 36.473999023 577.44781494 939.80877686 100
          553.14678955 782.5166626 100 516.88586426 732.67279053 33.32749939
          827.91497803 863.39788818 29.777799606 828.78265381 735.65441895 100
          827.91497803 863.39788818 100 671.25860596 737.2008667 80.260398865
          783.33911133 745.67773438 80.260398865 920.86334229 956.6862793 0
          920.86334229 956.6862793 61.16109848 1000 960.60375977 0
          1000 960.60375977 61.16109848 854.3168335 913.2923584 -0
          854.3168335 913.2923584 61.335899353 867.97113037 913.82287598 -0
          974.49108887 917.96142578 61.335899353 974.49108887 917.96142578 0
          824.88397217 521.24078369 39.545700073 824.88397217 521.24078369 69.772796631
          824.33642578 548.80279541 9.3184900284 823.78881836 576.36486816 9.3184900284
          824.33642578 548.80279541 100 823.78881836 576.36486816 100
          823.24127197 603.92687988 69.772796631 823.24127197 603.92687988 39.545700073
          525.93389893 779.18566895 100 535.69818115 829.38031006 8.6479597092
          525.93389893 779.18566895 8.6479597092 525.93389893 779.18566895 65.394599915
          525.93389893 779.18566895 78.601699829 509.92230225 696.87542725 8.6479597092
          516.88586426 732.67279053 100 509.92230225 696.87542725 100
          516.88586426 732.67279053 15.08769989 735.37805176 742.050354 37.744998932
          735.37805176 742.050354 45.915599823 731.19995117 697.02380371 37.744998932
          741.81262207 811.39434814 37.744998932 731.19995117 697.02380371 100
          980.12091064 531.40014648 -0 880.24938965 545.24346924 25.718399048
          838.86785889 550.97943115 87.788002014 980.12091064 531.40008545 87.788002014
          880.24938965 545.24346924 54.076999664 880.24938965 545.24346924 80.386199951
          523.91143799 568.87347412 60.064800262 523.92614746 568.27282715 -3.5527100789e-15
          777.91467285 893.75195312 86.116600037 778.53234863 843.84710693 53.928398132
          879.60571289 584.425354 80.386199951 879.60571289 584.425354 0
          881.57244873 464.70718384 0 881.57244873 464.70718384 80.386199951
          634.65985107 766.72735596 100 634.65985107 766.72735596 44.30039978
          641.73150635 671.9329834 100 641.73150635 671.9329834 44.30039978
          641.73150635 671.9329834 67.793701172 646.89001465 602.78399658 44.30039978
          646.89001465 602.78399658 100 602.74023438 506.80377197 100
          602.74023438 506.80377197 7.8766798973 518.10180664 568.13043213 92.766700745
          659.55395508 571.58868408 92.766700745 659.55395508 571.58868408 0
          835.27789307 902.2388916 34.092601776 833.73223877 934.82592773 0
          832.18658447 967.41296387 0 833.73223877 934.82592773 68.185203552
          832.18658447 967.41296387 68.185203552 830.64093018 1000 34.092601776
          542.19903564 942.28424072 36.473999023 542.19903564 942.28424072 100
          577.44781494 939.80877686 68.236999512 679.69390869 846.86132812 100
          798.37487793 843.24200439 100 625.73828125 731.65588379 100
          475.76913452 733.0569458 100 549.82556152 683.42749023 100
          722.4574585 661.83679199 100 730.62097168 537.64025879 100
          671.25860596 737.20092773 0 783.33911133 745.67773438 0
          721.43414307 549.82922363 2.4703700271e-29 516.88586426 732.67279053 38.368000031
          625.73828125 731.65588379 15.08769989 475.76913452 733.0569458 15.08769989
          996.90795898 736.17956543 42.272701263 993.81591797 770.97674561 42.272701263
          1000 701.38232422 71.136398315 996.90795898 736.17956543 100
          993.81591797 770.97674561 100 553.14678955 782.5166626 8.3978796005
          722.4574585 661.83679199 23.442100525 549.82556152 683.4274292 23.442100525
          729.65142822 492.44180298 88.978401184 729.65142822 492.44180298 66.594497681
          721.43463135 549.82928467 88.978401184 729.65142822 492.44180298 44.41809845
          679.69390869 846.86120605 1.4732300043 798.37487793 843.24188232 1.4732300043
          730.62109375 537.64025879 1.8537299633 519.36688232 539.00274658 0
          523.91876221 568.57318115 31.942199707 777.91467285 893.75195312 57.41109848
          777.91467285 893.75195312 28.705499649 778.22351074 868.79956055 86.116600037
          778.7409668 826.99395752 0 779.15411377 793.6149292 -0
          778.87731934 815.97668457 86.116600037 779.222229 788.10632324 86.116600037
          779.56719971 760.23590088 28.705499649 779.56719971 760.23590088 57.41109848
          778.53234863 843.84710693 27.700799942 746.19580078 516.45446777 28.388299942
          776.4105835 513.45196533 0 806.62542725 510.44943237 -0
          776.4105835 513.45196533 56.776599884 806.62542725 510.44943237 56.776599884
          836.84020996 507.44692993 28.388299942 990.72387695 805.77398682 71.136398315
          926.15344238 644.0592041 34.831501007 921.10864258 676.90722656 -0
          916.06384277 709.75518799 0 911.01904297 742.60321045 0
          921.10864258 676.90722656 69.663002014 916.06384277 709.75524902 69.663002014
          911.01904297 742.60321045 69.663002014 905.97424316 775.45123291 34.831501007
          769.14910889 572.50085449 32.216300964 769.14910889 572.50085449 64.432701111
          766.61834717 602.35125732 0 764.08764648 632.20166016 -0
          761.55688477 662.05212402 0 759.02612305 691.90252686 0
          766.61834717 602.35125732 96.649002075 764.08758545 632.20166016 96.649002075
          761.55688477 662.05212402 96.649002075 759.02612305 691.90252686 96.649002075
          756.49536133 721.75292969 64.432701111 756.49536133 721.75292969 32.216300964
          920.86334229 956.6862793 30.580499649 947.24224854 957.99212646 0
          973.62109375 959.2979126 0 947.24224854 957.99212646 61.16109848
          790.66082764 967.03735352 0 784.04486084 934.07476807 34.940200806
          790.66082764 967.03735352 69.880302429 797.27679443 1000 34.940200806
          567.2175293 858.52502441 33.623298645 594.37652588 853.9654541 67.246696472
          621.53546143 849.40594482 67.246696472 648.69445801 844.84637451 33.623298645
          620.67504883 849.550354 0 832.97857666 950.71588135 48.115299225
          832.1809082 967.53222656 28.582300186 833.85784912 932.1776123 29.878700256
          531.34674072 943.04644775 68.402603149 918.57720947 932.1729126 32.412899017
          942.64080811 934.43658447 32.34280014 966.11968994 936.64520264 54.486301422
          942.23980713 934.39886475 77.150100708 894.87304688 929.9430542 54.497200012
          918.51391602 932.16693115 77.233703613 930.49365234 933.29388428 55.252601624
          828.42572021 788.20452881 69.841598511 828.27105713 810.97753906 59.833599091
          828.11895752 833.36364746 74.503303528 828.57843018 765.71734619 55.249198914
          960.43170166 958.64501953 30.38820076 881.42132568 914.34545898 24.468000412
          905.14599609 915.26721191 29.560400009 933.98046875 916.38751221 31.062799454
          530.22399902 801.23937988 56.190200806 520.66522217 752.10131836 43.79650116
          737.49377441 764.85089111 66.237098694 859.55865479 548.1114502 27.180200577
          907.9810791 541.39953613 38.924900055 955.01953125 534.87945557 36.594898224
          897.734375 930.21221924 8.4799203873 930.4934082 933.29388428 8.4799203873
          963.25244141 936.37548828 8.4799203873 864.9753418 927.1305542 38.986598969
          864.9753418 927.1305542 69.493301392 897.734375 930.21221924 100
          930.4934082 933.29388428 100 963.25244141 936.37548828 100
          996.01147461 939.45715332 69.493301392 996.01147461 939.45715332 38.986598969
          828.56573486 767.590271 29.777799606 828.34881592 799.52612305 29.777799606
          828.13189697 831.46203613 29.777799606 828.78265381 735.65441895 64.888900757
          828.56573486 767.590271 100 828.34881592 799.52612305 100
          828.13189697 831.46203613 100 827.91497803 863.39788818 64.888900757
          729.40618896 481.02407837 100 730.0135498 509.33215332 100
          699.27874756 739.32012939 0 727.29888916 741.43933105 0
          755.31896973 743.55853271 0 725.34527588 522.51409912 2.480040001e-29
          729.25634766 495.19894409 2.4897099749e-29 973.62109375 959.2979126 61.16109848
          1000 960.60375977 32.55039978 854.3168335 913.2923584 30.667900085
          884.3604126 914.45965576 61.335899353 914.4039917 915.62689209 61.335899353
          944.44750977 916.79418945 61.335899353 974.49108887 917.96142578 30.667900085
          894.60113525 914.85748291 0 921.23114014 915.89215088 0
          947.86108398 916.92675781 0 530.81604004 804.28302002 100
          535.69818115 829.38031006 69.549301147 535.69818115 829.38031006 39.09859848
          530.81604004 804.28302002 8.6479597092 525.93389893 779.18566895 37.02130127
          520.59667969 751.74890137 8.6479597092 515.25952148 724.31219482 8.6479597092
          521.40991211 755.92919922 100 516.88586426 732.67279053 69.183998108
          509.92230225 696.87542725 39.09859848 509.92230225 696.87542725 69.549301147
          733.28900146 719.53710938 37.744998932 738.59533691 776.72235107 37.744998932
          731.19995117 697.02380371 68.872497559 733.85308838 725.61645508 100
          736.50628662 754.20904541 100 739.15942383 782.80169678 100
          741.81262207 811.39434814 68.872497559 913.53991699 540.62902832 -0
          946.8303833 536.0145874 0 838.86785889 550.97943115 29.262699127
          838.86785889 550.97943115 58.525299072 867.11846924 547.0635376 87.788002014
          895.36907959 543.14770508 87.788002014 923.61968994 539.23181152 87.788002014
          951.87030029 535.315979 87.788002014 980.12091064 531.40008545 58.525299072
          980.12091064 531.40008545 29.262699127 516.1574707 518.79821777 60.064800262
          520.03448486 543.83587646 60.064800262 879.60571289 584.425354 53.590801239
          879.60571289 584.425354 26.79540062 880.69042969 518.39807129 0
          881.13140869 491.5526123 0 881.57244873 464.70718384 26.79540062
          881.57244873 464.70718384 53.590801239 881.13140869 491.5526123 80.386199951
          880.69042969 518.39807129 80.386199951 634.65985107 766.72735596 72.15019989
          637.01708984 735.12921143 100 639.37426758 703.53112793 100
          637.01708984 735.12921143 44.30039978 639.37426758 703.53112793 44.30039978
          644.31079102 637.35845947 44.30039978 646.89001465 602.78399658 72.15019989
          644.31079102 637.35845947 100 536.00524902 497.181427 100
          569.3727417 501.99258423 100 602.74023438 506.80377197 69.292198181
          602.74023438 506.80377197 38.584499359 572.59552002 502.45727539 7.8766798973
          542.45074463 498.11077881 7.8766798973 546.39221191 568.82208252 92.766700745
          574.68267822 569.51373291 92.766700745 602.9730835 570.2053833 92.766700745
          631.2635498 570.89703369 92.766700745 659.55395508 571.58868408 61.844501495
          659.55395508 571.58868408 30.922199249 632.42840576 570.92553711 4.4408899809e-16
          605.30285645 570.2623291 -0 578.17724609 569.59918213 4.9303800699e-32
          551.05169678 568.93597412 4.4408899809e-16 466.41360474 771.90008545 100
          496.17376709 775.54284668 100 709.36413574 845.95648193 100
          739.03442383 845.05169678 100 768.70465088 844.14685059 100
          544.09893799 732.4185791 100 571.31207275 732.16430664 100
          598.52514648 731.91009521 100 611.09619141 675.76446533 100
          580.46087646 679.5960083 100 668.64013672 668.56756592 100
          695.54882812 665.20220947 100 625.73828125 731.65588379 71.695899963
          625.73828125 731.65588379 43.391799927 598.52514648 731.91009521 15.08769989
          571.31207275 732.16430664 15.08769989 544.09893799 732.4185791 15.08769989
          475.76913452 733.0569458 43.391799927 494.90011597 775.38696289 8.3978796005
          524.0234375 778.95184326 8.3978796005 553.14678955 782.5166626 38.931900024
          553.14678955 782.5166626 69.466003418 722.4574585 661.83679199 74.480697632
          722.4574585 661.83679199 48.961399078 693.68548584 665.4352417 23.442100525
          664.91351318 669.03369141 23.442100525 636.14147949 672.63214111 23.442100525
          607.36950684 676.23052979 23.442100525 578.59753418 679.82897949 23.442100525
          549.82556152 683.4274292 48.961399078 549.82556152 683.4274292 74.480697632
          725.54302979 521.13555908 88.978401184 721.43463135 549.82928467 29.659500122
          721.43463135 549.82928467 59.318901062 679.69390869 846.86126709 67.157699585
          679.69390869 846.86120605 34.315498352 798.37487793 843.24194336 67.157699585
          798.37487793 843.24188232 34.315498352 712.64007568 845.85644531 1.4732300043
          745.58618164 844.85174561 1.4732300043 730.62109375 537.64025879 67.284599304
          730.62109375 537.64025879 34.569198608 730.13616943 515.04101562 1.8537299633
          703.31835938 739.62561035 80.260398865 759.35858154 743.86401367 80.260398865
          783.33911133 745.67773438 53.506900787 783.33911133 745.67773438 26.753499985
          671.25860596 737.2008667 26.753499985 671.25860596 737.2008667 53.506900787
          523.12817383 598.57519531 66.02230072 523.12817383 598.57519531 33.011100769
          824.04656982 563.39099121 37.385601044 823.7244873 579.60247803 61.946498871
          824.27825928 551.7300415 68.152099609 995.41168213 753.01843262 70.36000061
          992.68322754 783.72387695 70.737503052 998.18078613 721.85571289 70.774803162
          917.85675049 698.08129883 39.685901642 914.24267578 721.61340332 29.799200058
          910.69067383 744.74145508 44.521999359 921.4319458 674.80224609 25.109500885
          765.57110596 614.70385742 25.282899857 760.07055664 679.58337402 25.266700745
          762.81945801 647.15936279 71.074699402 762.82098389 647.14135742 24.140499115
          766.73175049 601.01348877 47.828701019 765.56256104 614.80444336 70.500099182
          760.0703125 679.58630371 70.495697021 758.90008545 693.38879395 47.813201904
          761.48236084 662.93115234 47.173900604 764.15350342 631.42480469 47.25799942
          791.51800537 511.95068359 28.689199448 790.5869751 966.66949463 45.653999329
          607.57958984 851.74890137 34.512901306 931.90142822 538.08392334 27.116199493
          904.81854248 541.83789062 67.450897217 937.25921631 537.34124756 60.026798248
          516.94354248 523.78961182 29.763599396 779.24981689 785.88098145 35.676200867
          778.24072266 867.40753174 42.403900146 779.05828857 801.35418701 58.162700653
          778.88671875 815.21533203 28.864400864 880.92956543 503.84036255 54.717700958
          880.74243164 515.23284912 28.035100937 881.19458008 487.7086792 32.458400726
          640.09197998 693.91040039 75.182899475 637.14526367 733.41101074 75.469497681
          643.51147461 648.07318115 74.668899536 537.91534424 497.45684814 41.722900391
          561.75524902 500.89425659 28.608999252 546.89776611 498.75198364 71.802696228
          572.90130615 502.50137329 54.063800812 583.01062012 503.95901489 27.27009964
          596.92327881 570.05749512 31.815200806 559.85137939 569.53778076 63.571899414
          549.48126221 568.98614502 28.864299774 587.84606934 570.03302002 64.220100403
          618.42871094 570.58325195 62.161300659 639.06652832 571.08782959 45.838401794
          624.24902344 570.7255249 28.235200882 574.49694824 569.52081299 38.069900513
          706.59228516 739.87322998 48.49079895 710.16021729 740.14306641 24.59059906
          755.52911377 743.57440186 43.320701599 495.35528564 596.54315186 51.271900177
          548.04400635 732.38171387 70.235298157 553.42657471 732.3314209 41.007301331
          581.05584717 732.07330322 70.635398865 604.01574707 731.85882568 61.394199371
          588.75939941 732.00134277 41.088100433 493.44934082 732.89178467 77.021202087
          502.38705444 776.30340576 70.130302429 472.13641357 772.60058594 33.370800018
          499.42141724 775.94036865 40.497898102 471.53582764 772.52703857 65.535598755
          578.75671387 679.80908203 59.94960022 613.72491455 675.43566895 68.271697998
          676.24664307 667.61627197 49.518100739 668.15167236 668.62866211 76.266799927
          696.66845703 665.06213379 69.621398926 606.23614502 676.37231445 42.145301819
          725.74493408 519.72528076 52.702701569 726.8147583 512.25354004 21.739900589
          724.16204834 845.50518799 67.148101807 758.58935547 844.45526123 75.095100403
          704.93743896 846.09143066 41.88130188 727.98400879 845.3885498 30.593299866
          752.04608154 844.65478516 42.431800842 730.12420654 514.48516846 71.587303162
        </DataArray>
      </Points>
      <Cells>
        <DataArray type="Int64" Name="connectivity" format="ascii" RangeMin="0" RangeMax="453">
          66 68 2 378 377 376
          377 71 72 3 70 67
          377 73 376 73 69 376
          72 73 377 73 4 69
          71 1 72 378 376 66
          67 378 66 67 70 378
          69 68 376 376 68 66
          378 70 71 377 378 71
          379 136 381 10 381 138
          379 137 136 139 379 381
          10 139 381 140 380 379
          169 9 380 11 380 140
          11 169 380 139 140 379
          380 9 137 379 380 137
          381 136 8 138 381 8
          177 5 173 383 382 175
          385 382 172 174 175 382
          382 383 172 383 173 172
          174 170 0 382 385 174
          176 384 175 385 170 174
          384 383 175 6 384 176
          177 173 384 170 385 12
          6 177 384 384 173 383
          171 385 172 385 171 12
          387 393 189 187 188 392
          178 180 7 394 388 392
          16 184 179 392 188 393
          189 17 183 179 390 178
          189 183 387 393 188 189
          386 390 395 387 183 182
          389 182 181 181 180 386
          388 391 185 18 188 187
          185 186 388 386 180 178
          387 182 389 390 386 178
          386 389 181 386 395 389
          395 390 391 187 392 186
          392 388 186 179 391 390
          179 184 391 391 184 185
          389 394 387 394 392 393
          387 394 393 391 388 395
          395 388 394 389 395 394
          163 164 19 168 165 396
          167 396 166 168 21 165
          20 166 163 396 165 164
          396 164 163 166 396 163
          397 15 197 195 194 28
          14 196 397 194 197 13
          14 397 195 196 15 397
          397 197 194 195 397 194
          201 43 202 198 40 39
          41 199 198 198 398 40
          42 201 200 199 200 398
          198 199 398 398 202 40
          200 201 398 398 201 202
          204 205 203 205 115 44
          118 203 117 204 203 118
          114 205 44 116 115 204
          119 46 204 117 114 45
          47 119 118 204 115 205
          119 204 118 204 46 116
          117 205 114 117 203 205
          122 48 120 122 206 121
          122 120 206 49 122 121
          208 209 230 233 232 24
          207 208 229 25 236 235
          231 228 22 213 212 210
          208 230 229 229 228 207
          213 207 211 235 209 210
          208 207 213 235 210 234
          237 23 230 212 213 211
          236 237 209 209 237 230
          235 236 209 234 210 212
          212 211 233 233 211 232
          234 212 233 207 228 211
          211 228 231 232 211 231
          209 213 210 209 208 213
          243 214 242 243 216 215
          245 52 240 54 216 244
          243 215 214 241 217 26
          217 238 26 242 241 53
          215 240 239 214 215 239
          243 244 216 239 217 214
          245 240 216 239 238 217
          54 245 216 216 240 215
          242 217 241 242 214 217
          253 218 193 192 191 218
          190 191 57 253 254 218
          60 254 253 193 190 58
          254 59 192 218 254 192
          218 191 190 193 218 190
          255 63 61 62 256 255
          64 259 258 258 259 221
          261 260 220 258 221 257
          256 220 219 259 65 262
          219 260 63 220 221 261
          256 257 220 221 262 261
          221 220 257 255 219 63
          255 256 219 220 260 219
          221 259 262 222 267 77
          78 74 263 265 266 222
          266 76 267 222 266 267
          264 263 27 75 266 265
          77 78 222 222 78 263
          264 222 263 265 222 264
          272 273 271 273 81 80
          78 270 74 271 80 270
          271 273 80 267 268 223
          76 268 267 268 82 51
          267 223 77 82 268 269
          82 269 51 271 270 78
          269 272 51 269 79 272
          223 268 51 223 271 77
          77 271 78 280 86 275
          84 275 83 224 275 84
          276 30 274 277 278 31
          87 277 276 274 84 83
          276 31 30 276 274 85
          277 31 276 30 84 274
          29 280 279 30 224 84
          279 280 224 31 224 30
          31 278 224 224 278 279
          224 280 275 91 289 288
          401 400 287 283 225 33
          286 287 400 289 290 227
          89 281 32 285 286 93
          284 285 92 285 93 92
          282 281 399 399 281 226
          90 285 284 400 226 92
          290 88 282 401 399 226
          93 400 92 227 399 401
          284 225 283 290 282 227
          284 92 225 92 89 225
          89 32 225 225 32 33
          227 282 399 226 281 89
          92 226 89 400 401 226
          288 401 287 93 286 400
          288 289 401 401 289 227
          95 151 152 94 152 292
          292 402 291 152 402 292
          152 151 402 405 158 97
          404 155 153 153 155 96
          97 158 35 160 161 403
          34 38 154 159 158 405
          156 406 162 161 37 159
          154 404 153 97 35 155
          161 159 405 38 156 162
          404 162 97 154 38 404
          36 160 157 161 405 403
          404 38 162 97 155 404
          157 160 403 156 157 406
          406 157 403 406 403 405
          406 405 97 162 406 97
          93 98 92 98 293 92
          294 99 89 89 99 32
          92 294 89 92 293 294
          408 92 89 295 89 32
          100 297 296 295 296 408
          295 408 89 298 407 409
          407 299 300 300 93 92
          407 92 408 298 101 299
          299 407 298 407 300 92
          407 408 409 408 296 409
          409 296 297 304 411 301
          411 303 302 305 105 106
          411 304 305 305 106 410
          410 411 305 103 304 301
          410 303 411 106 104 410
          410 104 303 102 301 302
          411 302 301 105 306 106
          106 412 104 107 307 306
          307 108 308 412 308 104
          306 307 412 106 306 412
          412 307 308 312 110 417
          413 415 416 414 416 417
          413 416 414 109 311 310
          415 310 416 416 310 311
          417 416 312 414 417 313
          313 314 414 414 314 413
          309 310 415 416 311 312
          417 110 313 111 315 94
          420 95 152 112 319 318
          316 421 419 324 95 420
          419 421 425 423 320 424
          323 418 322 94 420 152
          418 323 425 320 113 321
          316 317 421 322 424 321
          315 419 94 315 316 419
          420 323 324 94 419 420
          424 320 321 319 422 318
          319 320 423 319 423 422
          322 418 424 425 421 418
          422 418 421 422 421 317
          318 422 317 419 425 420
          418 422 424 424 422 423
          425 323 420 330 331 430
          330 271 80 431 430 432
          341 133 431 125 337 332
          431 340 341 337 338 433
          340 434 339 433 338 434
          433 432 332 134 339 338
          340 431 434 337 433 332
          432 430 331 332 432 331
          434 338 339 271 430 133
          330 430 271 430 431 133
          431 432 434 434 432 433
          435 271 342 271 435 80
          342 271 133 435 126 80
          341 82 51 77 78 346
          345 77 346 77 345 267
          141 344 76 78 74 50
          326 74 78 77 267 438
          77 438 436 439 438 437
          267 76 344 438 344 343
          346 78 50 436 438 439
          345 141 267 267 141 76
          267 344 438 326 78 436
          436 78 77 437 438 343
          325 326 439 439 326 436
          333 104 441 441 440 334
          441 106 105 353 440 445
          336 443 335 143 354 353
          106 441 104 347 336 128
          350 351 105 440 441 445
          106 104 443 105 106 442
          351 445 105 106 443 442
          443 104 335 349 348 142
          353 354 440 333 441 334
          350 442 349 444 443 336
          355 127 334 347 444 336
          444 348 442 105 442 350
          354 355 440 440 355 334
          347 348 444 444 442 443
          353 445 352 442 348 349
          445 441 105 352 445 351
          147 446 447 357 132 251
          447 251 252 144 356 145
          356 446 145 357 446 358
          446 147 145 146 358 356
          356 358 446 446 357 447
          447 357 251 327 359 123
          97 361 362 162 364 452
          449 452 448 363 148 360
          361 97 35 450 360 359
          329 124 35 452 451 448
          35 449 329 452 449 97
          124 361 35 38 364 162
          329 449 328 97 362 162
          449 448 328 362 149 162
          162 149 38 35 97 449
          363 360 450 364 363 451
          451 363 450 448 359 327
          328 448 327 448 450 359
          451 450 448 162 452 97
          452 364 451 365 366 453
          366 150 367 247 144 246
          247 129 453 144 453 145
          453 129 365 247 453 144
          453 366 147 145 453 147
          30 31 369 83 84 428
          30 368 31 249 248 427
          250 428 371 373 55 368
          248 372 427 250 249 83
          130 372 248 370 369 56
          131 250 371 250 83 428