<?xml version="1.0"?>
<VTKFile type="UnstructuredGrid" version="0.1" byte_order="LittleEndian" header_type="UInt32" compressor="vtkZLibDataCompressor">
  <UnstructuredGrid>
    <Piece NumberOfPoints="789" NumberOfCells="1480">
      <PointData>
      </PointData>
      <CellData>
        <DataArray type="Float64" Name="Partition" format="ascii" RangeMin="2" RangeMax="2">
          2 2 2 2 2 2
          2 2 2 2 2 2
          2 2 2 2 2 2
          2 2 2 2 2 2
          2 2 2 2 2 2
          2 2 2 2 2 2
          2 2 2 2 2 2
          2 2 2 2 2 2
          2 2 2 2 2 2
          2 2 2 2 2 2
          2 2 2 2 2 2
          2 2 2 2 2 2
          2 2 2 2 2 2
          2 2 2 2 2 2
          2 2 2 2 2 2
          2 2 2 2 2 2
          2 2 2 2 2 2
          2 2 2 2 2 2
          2 2 2 2 2 2
          2 2 2 2 2 2
          2 2 2 2 2 2
          2 2 2 2 2 2
          2 2 2 2 2 2
          2 2 2 2 2 2
          2 2 2 2 2 2
          2 2 2 2 2 2
          2 2 2 2 2 2
          2 2 2 2 2 2
          2 2 2 2 2 2
          2 2 2 2 2 2
          2 2 2 2 2 2
          2 2 2 2 2 2
          2 2 2 2 2 2
          2 2 2 2 2 2
          2 2 2 2 2 2
          2 2 2 2 2 2
          2 2 2 2 2 2
          2 2 2 2 2 2
          2 2 2 2 2 2
          2 2 2 2 2 2
          2 2 2 2 2 2
          2 2 2 2 2 2
          2 2 2 2 2 2
          2 2 2 2 2 2
          2 2 2 2 2 2
          2 2 2 2 2 2
          2 2 2 2 2 2
          2 2 2 2 2 2
          2 2 2 2 2 2
          2 2 2 2 2 2
          2 2 2 2 2 2
          2 2 2 2 2 2
          2 2 2 2 2 2
          2 2 2 2 2 2
          2 2 2 2 2 2
          2 2 2 2 2 2
          2 2 2 2 2 2
          2 2 2 2 2 2
          2 2 2 2 2 2
          2 2 2 2 2 2
          2 2 2 2 2 2
          2 2 2 2 2 2
          2 2 2 2 2 2
          2 2 2 2 2 2
          2 2 2 2 2 2
          2 2 2 2 2 2
          2 2 2 2 2 2
          2 2 2 2 2 2
          2 2 2 2 2 2
          2 2 2 2 2 2
          2 2 2 2 2 2
          2 2 2 2 2 2
          2 2 2 2 2 2
          2 2 2 2 2 2
          2 2 2 2 2 2
          2 2 2 2 2 2
          2 2 2 2 2 2
          2 2 2 2 2 2
          2 2 2 2 2 2
          2 2 2 2 2 2
          2 2 2 2 2 2
          2 2 2 2 2 2
          2 2 2 2 2 2
          2 2 2 2 2 2
          2 2 2 2 2 2
          2 2 2 2 2 2
          2 2 2 2 2 2
          2 2 2 2 2 2
          2 2 2 2 2 2
          2 2 2 2 2 2
          2 2 2 2 2 2
          2 2 2 2 2 2
          2 2 2 2 2 2
          2 2 2 2 2 2
          2 2 2 2 2 2
          2 2 2 2 2 2
          2 2 2 2 2 2
          2 2 2 2 2 2
          2 2 2 2 2 2
          2 2 2 2 2 2
          2 2 2 2 2 2
          2 2 2 2 2 2
          2 2 2 2 2 2
          2 2 2 2 2 2
          2 2 2 2 2 2
          2 2 2 2 2 2
          2 2 2 2 2 2
          2 2 2 2 2 2
          2 2 2 2 2 2
          2 2 2 2 2 2
          2 2 2 2 2 2
          2 2 2 2 2 2
          2 2 2 2 2 2
          2 2 2 2 2 2
          2 2 2 2 2 2
          2 2 2 2 2 2
          2 2 2 2 2 2
          2 2 2 2 2 2
          2 2 2 2 2 2
          2 2 2 2 2 2
          2 2 2 2 2 2
          2 2 2 2 2 2
          2 2 2 2 2 2
          2 2 2 2 2 2
          2 2 2 2 2 2
          2 2 2 2 2 2
          2 2 2 2 2 2
          2 2 2 2 2 2
          2 2 2 2 2 2
          2 2 2 2 2 2
          2 2 2 2 2 2
          2 2 2 2 2 2
          2 2 2 2 2 2
          2 2 2 2 2 2
          2 2 2 2 2 2
          2 2 2 2 2 2
          2 2 2 2 2 2
          2 2 2 2 2 2
          2 2 2 2 2 2
          2 2 2 2 2 2
          2 2 2 2 2 2
          2 2 2 2 2 2
          2 2 2 2 2 2
          2 2 2 2 2 2
          2 2 2 2 2 2
          2 2 2 2 2 2
          2 2 2 2 2 2
          2 2 2 2 2 2
          2 2 2 2 2 2
          2 2 2 2 2 2
          2 2 2 2 2 2
          2 2 2 2 2 2
          2 2 2 2 2 2
          2 2 2 2 2 2
          2 2 2 2 2 2
          2 2 2 2 2 2
          2 2 2 2 2 2
          2 2 2 2 2 2
          2 2 2 2 2 2
          2 2 2 2 2 2
          2 2 2 2 2 2
          2 2 2 2 2 2
          2 2 2 2 2 2
          2 2 2 2 2 2
          2 2 2 2 2 2
          2 2 2 2 2 2
          2 2 2 2 2 2
          2 2 2 2 2 2
          2 2 2 2 2 2
          2 2 2 2 2 2
          2 2 2 2 2 2
          2 2 2 2 2 2
          2 2 2 2 2 2
          2 2 2 2 2 2
          2 2 2 2 2 2
          2 2 2 2 2 2
          2 2 2 2 2 2
          2 2 2 2 2 2
          2 2 2 2 2 2
          2 2 2 2 2 2
          2 2 2 2 2 2
          2 2 2 2 2 2
          2 2 2 2 2 2
          2 2 2 2 2 2
          2 2 2 2 2 2
          2 2 2 2 2 2
          2 2 2 2 2 2
          2 2 2 2 2 2
          2 2 2 2 2 2
          2 2 2 2 2 2
          2 2 2 2 2 2
          2 2 2 2 2 2
          2 2 2 2 2 2
          2 2 2 2 2 2
          2 2 2 2 2 2
          2 2 2 2 2 2
          2 2 2 2 2 2
          2 2 2 2 2 2
          2 2 2 2 2 2
          2 2 2 2 2 2
          2 2 2 2 2 2
          2 2 2 2 2 2
          2 2 2 2 2 2
          2 2 2 2 2 2
          2 2 2 2 2 2
          2 2 2 2 2 2
          2 2 2 2 2 2
          2 2 2 2 2 2
          2 2 2 2 2 2
          2 2 2 2 2 2
          2 2 2 2 2 2
          2 2 2 2 2 2
          2 2 2 2 2 2
          2 2 2 2 2 2
          2 2 2 2 2 2
          2 2 2 2 2 2
          2 2 2 2 2 2
          2 2 2 2 2 2
          2 2 2 2 2 2
          2 2 2 2 2 2
          2 2 2 2 2 2
          2 2 2 2 2 2
          2 2 2 2 2 2
          2 2 2 2 2 2
          2 2 2 2 2 2
          2 2 2 2 2 2
          2 2 2 2 2 2
          2 2 2 2 2 2
          2 2 2 2 2 2
          2 2 2 2 2 2
          2 2 2 2 2 2
          2 2 2 2 2 2
          2 2 2 2 2 2
          2 2 2 2 2 2
          2 2 2 2 2 2
          2 2 2 2 2 2
          2 2 2 2 2 2
          2 2 2 2 2 2
          2 2 2 2 2 2
          2 2 2 2 2 2
          2 2 2 2 2 2
          2 2 2 2 2 2
          2 2 2 2 2 2
          2 2 2 2 2 2
          2 2 2 2 2 2
          2 2 2 2 2 2
          2 2 2 2
        </DataArray>
      </CellData>
      <Points>
        <DataArray type="Float32" Name="Points" NumberOfComponents="3" format="ascii" RangeMin="3.3099550526e-14" RangeMax="772.78442062">
          296.29882812 255.0579834 0 367.95123291 256.76272583 0
          254.16334534 173.92823792 2.0194799451e-28 357.54290771 402.38607788 100
          239.71217346 534.51672363 0 370.06640625 533.15350342 0
          179.16329956 232.516922 0 181.06416321 327.86004639 0
          277.66897583 58.97145462 7.9528999488e-13 251.43171692 187.2875824 7.9528999488e-13
          416.46740723 404.72058105 100 351.23397827 262.0328064 100
          207.35728455 224.07820129 100 212.41995239 355.11096191 100
          420.58078003 328.48306274 100 350.91027832 456.53552246 0
          475.12744141 450.79327393 0 408.43356323 161.85610962 100
          405.37408447 290.75640869 100 119.57006073 92.686271667 0
          132.26734924 183.62652588 0 512.47241211 408.58947754 100
          50.416496277 83.312187195 100 46.560874939 188.51986694 100
          417.79891968 43.729393005 0 423.9269104 186.0067749 100
          476.81231689 177.18002319 3.2346700593e-30 197.62084961 97.642669678 -0
          193.61221313 202.39492798 0 353.10806274 154.99763489 8.7012097831e-13
          465.62310791 146.54194641 8.7012097831e-13 -9.2036490646e-30 3.3099550526e-14 1.0639600163e-28
          72.769042969 -2.6645352591e-13 100 72.769042969 0 2.2238099575
          8.0176638122e-29 -2.8834332383e-13 100 333.59860229 9.1486686933e-14 10.693400383
          333.59860229 7.6874965405e-15 36.76309967 333.59860229 -1.1634936721e-13 96.765098572
          80.380332947 86.140533447 100 461.37445068 123.61463165 100
          271.75341797 179.11045837 100 274.51107788 319.75390625 100
          121.09676361 486.09094238 100 316.59100342 299.50500488 9.3432502878e-15
          314.33743286 408.95953369 9.3432502878e-15 505.68899536 451.19250488 -0
          169.01951599 80.071632385 0 107.00832367 77.539756775 0
          241.69007874 207.13121033 0 285.62884521 208.61358643 0
          366.61117554 211.34571838 -0 62.765003204 75.733329773 0
          469.27029419 487.55908203 100 333.59860229 1.2434497876e-13 4.1598700129e-28
          429.26016235 580.66168213 100 346.98760986 136.08665466 -0
          102.17170715 12.131530762 -1.0885499926e-30 111.58403015 139.41967773 0
          356.28112793 374.31542969 100 514.80755615 509.73266602 -0
          519.36688232 539.00274658 0 332.12503052 255.91035461 0
          272.30072021 534.17590332 0 304.88928223 533.83514404 0
          337.47784424 533.49432373 0 179.79692078 264.29797363 0
          180.43054199 296.07901001 0 260.0397644 145.18904114 -0
          265.91616821 116.44983673 -0 271.79257202 87.710647583 0
          352.49575806 290.10345459 100 353.75753784 318.17410278 100
          355.01934814 346.24478149 100 196.28463745 132.56008911 0
          194.94842529 167.47750854 0 208.62295532 256.83639526 100
          209.88861084 289.59457397 100 211.15428162 322.3527832 100
          407.66870117 194.08117676 100 406.90380859 226.30625916 100
          406.13894653 258.53134155 100 123.80249786 122.99968719 0
          128.03492737 153.31311035 0 448.46908569 406.01022339 100
          480.47073364 407.29983521 100 49.452590942 109.61411285 100
          48.488685608 135.91603088 100 47.524780273 162.21794128 100
          444.09274292 40.080951691 0 423.25769043 214.50202942 100
          422.58847046 242.99728394 100 421.91921997 271.49255371 100
          421.25 299.98779297 100 381.96456909 455.09994507 0
          413.01885986 453.66439819 -0 444.07315063 452.2288208 0
          424.4715271 1.5112794371e-13 4.9565299715e-28 394.18054199 1.4270525137e-13 4.6909798618e-28
          363.8895874 1.3428255903e-13 4.4254302337e-28 303.27145386 1.1742710482e-13 3.8784300183e-28
          272.94430542 1.0899434973e-13 3.5969799125e-28 242.61717224 1.0056158787e-13 3.3155300475e-28
          212.2900238 9.2128839551e-14 3.0340900529e-28 437.49435425 148.65586853 -7.0681898589e-28
          409.36557007 150.76979065 0 381.23681641 152.88371277 -2.0194799451e-28
          336.27639771 27.217330933 0 338.95422363 54.434661865 0
          341.63201904 81.651992798 0 344.30981445 108.86932373 0
          104.59001923 44.835643768 -9.2182699573e-31 109.2961731 108.47972107 0
          122.95614624 520.82128906 100 314.90081787 381.59588623 0
          315.46420288 354.23226929 0 316.02761841 326.86862183 -4.7331699452e-30
          312.62295532 209.52430725 0 339.61706543 210.43501282 0
          510.24829102 480.46258545 0 0 463.74575806 74.985397339
          0 284.19696045 74.596298218 0 164.53694153 74.718803406
          0 28.387048721 50.273399353 0 74.400680542 25.82859993
          0 373.90460205 74.293197632 0 254.26141357 74.354797363
          0 134.63516235 75.137802124 0 74.342178345 75.067199707
          0 314.11218262 74.628898621 0 433.7940979 74.731498718
          0 194.43412781 74.382003784 0 434.13442993 25.190299988
          0 374.19854736 24.755599976 0 314.35910034 25.091499329
          0 254.46131897 24.817800522 0 194.58825684 24.867399216
          0 164.66871643 25.235700607 0 134.74058533 25.596200943
          0 239.36695862 49.176898956 0 149.65429688 50.381000519
          0 299.27682495 49.893001556 0 89.599182129 50.835098267
          0 58.770599365 50.624000549 0 119.70818329 50.705501556
          0 448.97085571 50.250701904 0 209.44805908 49.233100891
          0 359.04882812 49.183700562 0 418.94195557 49.52299881
          0 179.54289246 49.580600739 0 388.98352051 49.275100708
          0 329.15725708 49.475700378 0 269.31549072 49.47480011
          138.01391602 78.80569458 0 502.63778687 492.37023926 100
          536.00524902 497.181427 100 105.5005722 70.750312805 100
          233.61021423 25.981611252 100 390.12002563 310.39257812 100
          97.13433075 506.44476318 100 262.85513306 25.980806351 100
          382.19921875 177.57624817 100 380.62924194 275.75335693 100
          242.74786377 216.30474854 100 181.96287537 8.369608446e-14 2.7526399471e-28
          151.63572693 7.5263322592e-14 2.4711900821e-28 121.30859375 6.6830567501e-14 2.1897500874e-28
          90.981437683 5.839781241e-14 1.9082999817e-28 60.65429306 4.9965060708e-14 1.6268499963e-28
          30.32714653 4.1532305617e-14 1.3454100016e-28 394.45309448 -1.7866182709e-13 100
          365.20907593 -1.8679341114e-13 100 335.96508789 -1.9492498165e-13 100
          306.72106934 -2.030565657e-13 100 277.47705078 -2.1118813621e-13 100
          248.23306274 -2.1931972026e-13 100 218.98905945 -2.2745130432e-13 100
          189.74505615 -2.3558287482e-13 100 160.50105286 -2.4371444533e-13 100
          131.25704956 -2.5184601583e-13 100 102.01304626 -2.5997761344e-13 100
          423.69708252 -8.5265128291e-14 73.47429657 72.769042969 2.0194839174e-28 67.407897949
          72.769042969 0 34.815898895 36.384521484 -2.7822625388e-13 100
          2.0589779998e-29 -7.4048074259e-14 33.333301544 5.038320906e-29 -1.8119568888e-13 66.666702271
          333.59860229 -1.9913368507e-14 66.764099121 0 448.64541626 100
          0 418.73571777 100 0 388.82601929 100
          0 358.9163208 100 0 329.00665283 100
          0 299.09695435 100 0 269.18725586 100
          0 239.27755737 100 0 209.36785889 100
          0 179.4581604 100 0 149.54847717 100
          0 119.63877869 100 0 89.7290802 100
          0 59.819389343 100 0 29.909694672 100
          0 419.26852417 0 0 389.32077026 0
          0 359.37301636 0 0 329.42526245 0
          0 299.47750854 0 0 269.52975464 0
          0 239.58201599 0 0 209.63426208 0
          0 179.68650818 0 0 149.73875427 0
          0 119.791008 0 0 89.843254089 0
          0 59.895503998 0 0 29.947751999 0
          75.306137085 28.713510513 100 77.843238831 57.427021027 100
          272.30496216 207.239151 100 272.85647583 235.36784363 100
          273.40802002 263.496521 100 273.95953369 291.62521362 100
          478.14608765 211.11668396 100 323.12854004 276.4921875 100
          74.439239502 150.86483765 100 421.77752686 84.370048523 100
          432.07913208 110.04064941 100 407.17306519 50.770046234 100
          299.26223755 193.09298706 100 183.61991882 274.72857666 100
          182.23835754 242.39778137 100 474.3359375 275.17703247 100
          25.22605896 70.583709717 100 328.54107666 329.20742798 100
          87.326026917 473.14358521 100 248.22177124 51.957210541 100
          245.35038757 165.25540161 100 498.83203125 434.80892944 100
          149.2744751 537.27233887 100 132.83346558 57.482517242 100
          189.67152405 52.078727722 100 52.058929443 388.89578247 100
          103.02767944 104.947052 100 50.872653961 209.33580017 100
          354.81591797 194.14015198 100 450.6730957 514.59991455 100
          425.39300537 433.11968994 100 369.50894165 51.664199829 100
          261.88806152 303.70007324 5.8933399875e-30 129.26974487 298.10461426 6.0604698935e-31
          133.34106445 236.33001709 6.3477597724e-31 233.70608521 295.1055603 4.7537999651e-30
          320.38198853 458.18661499 8.5532301727e-30 262.83276367 383.0802002 6.1020998848e-30
          336.64126587 482.75604248 9.2529701744e-30 437.52960205 534.18914795 1.3376999323e-29
          77.948509216 494.152771 -1.0126099543e-30 263.65353394 351.99163818 6.0677099983e-30
          445.42684937 503.11694336 1.3624100649e-29 76.994300842 255.88354492 -1.5643900118e-30
          396.08056641 317.01794434 1.1259899767e-29 523.215271 430.58822632 1.6561900644e-29
          77.643569946 343.52749634 -1.3495599556e-30 446.90316772 233.33383179 1.310100002e-29
          217.5553894 73.238021851 3.632909866e-30 273.3319397 483.71679688 6.7367600054e-30
          402.33859253 534.2467041 1.1977299643e-29 126.57720947 215.07940674 3.1989999654e-31
          78.265716553 188.94554138 -1.6581700107e-30 77.508331299 373.83462524 -1.2895800272e-30
          181.84963989 358.13174438 2.8269899986e-30 77.884361267 403.85736084 -1.2098800056e-30
          410.256073 400.4850769 1.2003799988e-29 442.18887329 399.71682739 1.3272299452e-29
          210.75448608 533.83978271 4.3556699967e-30 242.20823669 482.54031372 5.4962000674e-30
          77.93510437 434.10348511 -1.142640036e-30 77.941047668 464.16305542 -1.0775799972e-30
          289.88406372 459.47232056 7.3428802515e-30 214.06867981 219.99554443 3.8106999071e-30
          491.96099854 501.81411743 1.547229976e-29 395.00222778 346.66638184 1.1280899927e-29
          474.99673462 343.99783325 1.4457199262e-29 103.98695374 509.21188354 5.5613201975e-32
          194.49136353 507.55987549 3.6520901722e-30 506.31512451 401.60894775 1.58272005e-29
          99.888397217 282.50823975 -5.9630402197e-31 99.496299744 358.09375 -4.4889999262e-31
          245.46548462 585.44952393 5.8476800253e-30 106.55534363 239.65489197 -4.235229974e-31
          97.933334351 -1.032316119e-13 50.883800507 137.15177917 -1.1870045284e-14 25.854000092
          258.75918579 2.3835373305e-14 25.265699387 409.36517334 6.6427129097e-14 25.043399811
          40.169952393 -4.8258418068e-14 28.785100937 167.50482178 -2.770130198e-15 25.648700714
          172.80554199 -1.602207001e-13 75.089698792 287.95507812 3.1570347736e-14 25.384899139
          228.98866272 1.6413377547e-14 24.999399185 379.80654907 5.7365035302e-14 25.305700302
          354.77166748 5.1295861276e-14 25.02820015 232.92030334 -1.4148125488e-13 74.460098267
          312.58895874 3.9521883081e-14 25.042100906 379.0402832 -9.7281368074e-14 73.349502563
          198.35931396 7.046359515e-15 25.263900757 262.26922607 -1.3372510293e-13 74.585899353
          202.82713318 -1.509514627e-13 74.803001404 142.9969635 -1.6853926837e-13 75.098999023
          107.10928345 -2.3902261802e-14 26.998399734 112.40276337 -1.7379365091e-13 74.08719635
          23.719278336 -1.2801794401e-13 52.174999237 362.30673218 -1.7537593556e-14 47.093898773
          293.34448242 -1.217729395e-13 73.555801392 395.98669434 -1.4755457937e-14 49.141799927
          246.06085205 -5.7996440766e-14 49.624900818 124.73399353 -9.5610436343e-14 50.831298828
          48.781551361 -1.3583039316e-13 56.773399353 306.08743286 -3.3435809053e-14 47.17660141
          215.98248291 -6.6735577839e-14 49.741699219 184.80082703 -7.7750062248e-14 50.470901489
          154.49349976 -8.6969738052e-14 50.717498779 275.40093994 -5.0184757337e-14 49.732700348
          27.19475174 -2.0582801685e-13 76.682197571 52.320957184 -2.1184363129e-13 80.727096558
          0 42.210693359 73.821998596 0 224.3397522 74.253501892
          0 343.9942627 74.324302673 0 42.245105743 26.672199249
          0 403.82537842 74.346496582 0 344.27450562 24.874799728
          0 104.68063354 75.178497314 0 284.4284668 25.146799088
          0 404.15429688 24.896499634 0 104.76583099 25.75
          0 224.52272034 24.80739975 438.0609436 159.71821594 100
          329.96853638 389.94732666 100 465.53555298 379.56497192 100
          503.0897522 381.74993896 100 451.05841064 191.67817688 100
          482.05212402 516.33398438 100 380.06726074 243.44866943 100
          407.71914673 21.694314957 100 110.78588104 33.07101059 100
          26.024909973 403.81756592 100 25.287399292 98.940086365 100
          71.492179871 184.36193848 100 76.150344849 121.23625183 100
          25.981044769 343.96182251 100 487.15261841 141.74290466 100
          522.45635986 465.31567383 100 514.47967529 349.24511719 100
          21.679674149 151.14666748 100 175.08233643 26.131933212 100
          50.885597229 51.322490692 100 145.26313782 27.463788986 100
          204.35783386 26.000040054 100 292.10235596 25.980447769 100
          321.43313599 25.969144821 100 351.2762146 25.876495361 100
          52.668571472 24.383909225 100 382.14526367 25.215770721 100
          26.316818237 463.93817139 100 26.225389481 433.90960693 100
          25.986709595 373.87606812 100 241.36170959 275.3777771 100
          26.270269394 224.43040466 100 241.10508728 305.66778564 100
          26.034332275 254.31135559 100 27.582860947 190.22758484 100
          27.190458298 40.081119537 100 303.60696411 305.39761353 100
          249.07611084 192.00163269 100 240.17758179 244.63563538 100
          298.89834595 252.65136719 100 25.989810944 284.15859985 100
          25.982057571 314.05432129 100 185.64675903 339.44473267 100
          433.34118652 378.45922852 100 384.14758301 362.87564087 100
          381.10354614 210.578125 100 448.58654785 257.96420288 100
          449.62069702 227.71043396 100 447.72503662 286.99636841 100
          446.77139282 315.91314697 100 306.83383179 51.97668457 100
          51.964069366 269.17300415 100 464.66723633 433.59689331 100
          29.030357361 123.19512939 100 353.65332031 227.76249695 100
          384.52581787 389.86746216 100 332.71725464 419.77145386 100
          421.31765747 134.89668274 100 160.84008789 52.801361084 100
          403.39318848 565.09844971 100 53.994373322 450.56195068 100
          328.35354614 359.33874512 100 475.78955078 244.29075623 100
          514.37237549 520.69580078 100 483.48098755 175.50811768 100
          485.00012207 462.56948853 100 240.92044067 336.38827515 100
          234.56654358 580.83508301 100 482.41522217 353.36358643 100
          218.97286987 51.964904785 100 277.47720337 51.99905014 100
          337.01968384 51.85597229 100 384.8649292 141.29571533 100
          300.36300659 339.56195068 100 52.661174774 419.30664062 100
          406.52713013 377.9256897 100 51.762756348 239.06684875 100
          548.40496826 524.84765625 100 447.66894531 348.22640991 100
          299.59576416 223.20475769 100 295.30783081 277.76635742 100
          51.983066559 358.91638184 100 186.24700928 369.8710022 100
          184.69114685 307.61984253 100 51.977878571 299.07247925 100
          51.982322693 328.98739624 100 493.7059021 326.24209595 100
          472.30163574 304.83151245 100 147.49093628 503.734375 100
          81.753814697 436.6060791 100 469.1317749 329.90557861 100
          434.85586548 487.89575195 100 325.92492676 242.46276855 100
          78.167976379 313.74252319 100 491.22271729 548.09484863 100
          303.60754395 408.44049072 100 269.49475098 352.12136841 100
          149.51611328 76.959098816 100 322.302948 77.936569214 100
          100.34726715 166.77586365 100 388.94238281 418.35559082 100
          463.76864624 157.97485352 100 403.71633911 109.39263153 100
          354.28649902 77.923065186 100 449.0710144 460.89932251 100
          327.18746948 209.76338196 100 331.69726562 303.89282227 100
          159.15814209 324.76742554 100 174.07963562 520.10314941 100
          174.68278503 78.282546997 100 388.86437988 79.326156616 100
          214.85543823 188.70184326 100 78.025169373 283.6668396 100
          182.22317505 211.05477905 100 101.71222687 136.49147034 100
          145.14364624 471.46008301 100 213.87518311 383.49325562 100
          299.19177246 163.02139282 100 73.539596558 497.95315552 100
          78.146865845 343.78341675 100 296.51651001 375.84213257 100
          432.11810303 545.74176025 100 156.61457825 260.33087158 100
          240.48297119 366.51785278 100 179.83229065 554.32226562 100
          128.51689148 89.776580811 100 463.07382202 538.20953369 100
          360.94058228 433.05813599 100 233.60681152 77.597694397 100
          204.34390259 77.967849731 100 414.41873169 355.24862671 100
          262.55892944 78.172866821 100 272.52099609 146.8866272 100
          292.18045044 78.590049744 100 355.04211426 161.99790955 100
          77.529884338 253.12019348 100 527.48071289 548.19671631 100
          158.4058075 292.54190063 100 159.21954346 355.61895752 100
          78.128761292 373.86437988 100 78.93548584 404.42880249 100
          114.14974213 454.70037842 100 216.10159302 555.43835449 100
          458.62307739 565.58081055 100 275.43502808 109.69017792 100
          173.2353363 488.09155273 100 188.20172119 400.23205566 100
          104.96372223 388.95281982 100 264.300354 378.45239258 100
          104.74038696 358.35974121 100 417.7769165 514.96478271 100
          402.49569702 538.36682129 100 241.99545288 394.8039856 100
          241.70365906 130.31703186 100 156.59486389 105.55151367 100
          371.01556396 106.36076355 100 415.22061157 464.82522583 100
          338.72103882 103.80040741 100 246.96405029 100.38625336 100
          103.64676666 266.47012329 100 76.011772156 220.5345459 100
          180.02558899 184.17353821 100 128.47846985 121.38767242 100
          389.97009277 447.05126953 100 220.18151855 103.5164032 100
          131.02711487 278.79598999 100 127.84802246 152.06408691 100
          387.29345703 337.32971191 100 105.04429626 327.80648804 100
          159.80570984 386.33892822 100 335.73852539 449.36608887 100
          267.6078186 577.61242676 100 511.00125122 571.02844238 100
          189.61134338 103.9041214 100 132.22299194 341.67184448 100
          154.57643127 228.74804688 100 104.75959778 297.13464355 100
          132.24153137 310.35488892 100 377.14041138 550.21490479 100
          351.33877563 131.37738037 100 301.01831055 132.8447113 100
          308.87582397 104.47157288 100 326.86242676 178.13087463 100
          100.04786682 199.57772827 100 139.23986816 437.86532593 100
          107.92169189 420.8069458 100 248.12333679 554.38848877 100
          307.58624268 437.40039062 100 199.77970886 532.77539062 100
          153.83796692 197.96998596 100 278.04202271 428.51141357 100
          381.11953735 517.64190674 100 219.55636597 153.46295166 100
          163.35237122 418.68560791 100 131.85626221 372.61611938 100
          155.40530396 138.34567261 100 101.90399933 234.2144928 100
          128.4042511 247.15823364 100 325.69448853 124.48091125 100
          133.75804138 404.1026001 100 217.61564636 413.13552856 100
          206.03259277 129.34934998 100 326.98065186 148.60232544 100
          169.88124084 453.99740601 100 275.61309814 552.22015381 100
          363.92504883 461.35461426 100 230.49195862 525.68359375 100
          311.19995117 466.78045654 100 345.39245605 566.64135742 100
          126.81537628 182.6151123 100 200.62223816 505.85491943 100
          401.3666687 490.51559448 100 155.4147644 168.2718811 100
          178.5330658 127.10896301 100 187.71670532 155.82034302 100
          261.59683228 531.36407471 100 340.51681519 478.19198608 100
          247.32606506 422.33740234 100 283.09326172 455.77554321 100
          202.57029724 470.78042603 100 126.79268646 214.55601501 100
          193.67132568 432.97894287 100 303.54534912 567.44677734 100
          351.17633057 534.23699951 100 225.70225525 495.38327026 100
          271.71487427 401.8684082 100 224.39381409 443.36425781 100
          348.18273926 505.78018188 100 317.04541016 496.83166504 100
          236.59884644 471.35690308 100 287.15716553 485.5864563 100
          294.25320435 525.25872803 100 324.68768311 543.70123291 100
          262.93951416 471.8288269 100 327.04681396 520.89569092 100
          370.51989746 487.79171753 100 254.72883606 448.83618164 100
          257.52597046 500.24813843 100 388.48892212 470.37145996 100
          25.980791092 464.19012451 -3.1443700879e-30 398.61175537 124.13995361 1.0944600209e-29
          357.92156982 182.61206055 9.4521903239e-30 77.390739441 27.542881012 -2.0410399936e-30
          364.32824707 428.75662231 1.0237799718e-29 104.91362762 169.89411926 -6.3926500209e-31
          154.42819214 248.95819092 1.5007999992e-30 341.8928833 282.64419556 9.0303296636e-30
          289.12518311 368.60818481 7.1167399649e-30 371.80703735 118.60749817 9.8664902045e-30
          282.48068237 186.79695129 6.460359718e-30 290.91473389 134.94740295 6.68403015e-30
          28.140714645 70.481582642 -3.9074801437e-30 364.45083618 37.386169434 9.3987299693e-30
          25.956863403 194.20355225 -3.7275501387e-30 308.52648926 75.009941101 7.2553301846e-30
          25.975996017 344.38430786 -3.4029199764e-30 264.47866821 232.95542908 5.8438300462e-30
          207.47459412 311.59274292 3.7459299803e-30 171.97090149 116.08838654 1.9120700196e-30
          322.29766846 559.12506104 8.847109779e-30 398.9197998 480.43508911 1.1725299986e-29
          81.052337646 56.099998474 -1.8338099316e-30 289.49575806 559.34979248 7.5428203678e-30
          344.49777222 399.79333496 9.3865800597e-30 342.7791748 313.08691406 9.1312303371e-30
          458.96957397 425.87631226 1.3996199342e-29 342.15722656 341.38189697 9.1675100424e-30
          226.29151917 154.2693634 4.1551498445e-30 153.67709351 53.976398468 1.0504499638e-30
          154.39715576 280.35684204 1.5672800352e-30 450.25192261 175.12223816 1.3108700731e-29
          321.04632568 98.93687439 7.8049401855e-30 244.90287781 61.456336975 4.6953099993e-30
          198.26644897 26.835098267 2.7655699486e-30 422.51037598 127.65345764 1.1902900067e-29
          83.510154724 99.670936584 -1.6420800321e-30 284.8661499 25.691995621 6.2078300534e-30
          258.53286743 28.647903442 5.1667298776e-30 228.38314819 27.783847809 3.9655800335e-30
          167.58291626 27.185804367 1.54580996e-30 82.185707092 127.14520264 -1.6355100531e-30
          49.195297241 24.097780228 -3.1700099707e-30 295.81124878 106.23413849 6.8168801957e-30
          26.71109581 39.856086731 -4.0303999893e-30 27.01399231 133.07196045 -3.8173300714e-30
          28.632295609 101.06697083 -3.8219699827e-30 26.177993774 163.81282043 -3.7842898404e-30
          25.970153809 224.40586853 -3.6618898454e-30 25.954338074 254.51649475 -3.5975799601e-30
          25.95256424 314.42184448 -3.4684700553e-30 25.980127335 374.3444519 -3.3381500496e-30
          25.980669022 404.29425049 -3.27353999e-30 25.980770111 434.24234009 -3.2089498668e-30
          431.80911255 479.2975769 1.3031099296e-29 469.70999146 209.54338074 1.3956899839e-29
          474.75723267 247.74449158 1.4240100314e-29 446.88516235 121.07627106 1.285820044e-29
          287.88412476 162.9614563 6.6238997583e-30 321.12979126 151.20379639 7.9209699415e-30