<?xml version="1.0"?>
<VTKFile type="UnstructuredGrid" version="0.1" byte_order="LittleEndian" header_type="UInt32" compressor="vtkZLibDataCompressor">
  <UnstructuredGrid>
    <Piece NumberOfPoints="434" NumberOfCells="517">
      <PointData>
      </PointData>
      <CellData>
        <DataArray type="Float64" Name="Partition" format="ascii" RangeMin="3" RangeMax="3">
          3 3 3 3 3 3
          3 3 3 3 3 3
          3 3 3 3 3 3
          3 3 3 3 3 3
          3 3 3 3 3 3
          3 3 3 3 3 3
          3 3 3 3 3 3
          3 3 3 3 3 3
          3 3 3 3 3 3
          3 3 3 3 3 3
          3 3 3 3 3 3
          3 3 3 3 3 3
          3 3 3 3 3 3
          3 3 3 3 3 3
          3 3 3 3 3 3
          3 3 3 3 3 3
          3 3 3 3 3 3
          3 3 3 3 3 3
          3 3 3 3 3 3
          3 3 3 3 3 3
          3 3 3 3 3 3
          3 3 3 3 3 3
          3 3 3 3 3 3
          3 3 3 3 3 3
          3 3 3 3 3 3
          3 3 3 3 3 3
          3 3 3 3 3 3
          3 3 3 3 3 3
          3 3 3 3 3 3
          3 3 3 3 3 3
          3 3 3 3 3 3
          3 3 3 3 3 3
          3 3 3 3 3 3
          3 3 3 3 3 3
          3 3 3 3 3 3
          3 3 3 3 3 3
          3 3 3 3 3 3
          3 3 3 3 3 3
          3 3 3 3 3 3
          3 3 3 3 3 3
          3 3 3 3 3 3
          3 3 3 3 3 3
          3 3 3 3 3 3
          3 3 3 3 3 3
          3 3 3 3 3 3
          3 3 3 3 3 3
          3 3 3 3 3 3
          3 3 3 3 3 3
          3 3 3 3 3 3
          3 3 3 3 3 3
          3 3 3 3 3 3
          3 3 3 3 3 3
          3 3 3 3 3 3
          3 3 3 3 3 3
          3 3 3 3 3 3
          3 3 3 3 3 3
          3 3 3 3 3 3
          3 3 3 3 3 3
          3 3 3 3 3 3
          3 3 3 3 3 3
          3 3 3 3 3 3
          3 3 3 3 3 3
          3 3 3 3 3 3
          3 3 3 3 3 3
          3 3 3 3 3 3
          3 3 3 3 3 3
          3 3 3 3 3 3
          3 3 3 3 3 3
          3 3 3 3 3 3
          3 3 3 3 3 3
          3 3 3 3 3 3
          3 3 3 3 3 3
          3 3 3 3 3 3
          3 3 3 3 3 3
          3 3 3 3 3 3
          3 3 3 3 3 3
          3 3 3 3 3 3
          3 3 3 3 3 3
          3 3 3 3 3 3
          3 3 3 3 3 3
          3 3 3 3 3 3
          3 3 3 3 3 3
          3 3 3 3 3 3
          3 3 3 3 3 3
          3 3 3 3 3 3
          3 3 3 3 3 3
          3
        </DataArray>
      </CellData>
      <Points>
        <DataArray type="Float32" Name="Points" NumberOfComponents="3" format="ascii" RangeMin="532.46777329" RangeMax="1124.4969678">
          320.76776123 611.7713623 -0 320.65811157 603.17669678 -0
          320.65811157 603.17669678 82.989601135 321.48406982 667.9206543 82.989601135
          321.48406982 667.9206543 0 320.88052368 620.61071777 0
          220.28826904 608.11419678 100 409.64202881 917.91229248 100
          220.28826904 608.11419678 38.204498291 116.57996368 602.26135254 38.204498291
          116.57996368 602.26135254 100 409.64202881 917.91229248 36.774700165
          500.71331787 920.95080566 36.774700165 500.71331787 920.95080566 100
          83.001075745 658.66485596 0 83.001075745 658.66485596 89.355400085
          104.429039 658.90258789 0 205.57325745 660.02471924 89.355400085
          205.57325745 660.02471924 -0 208.64428711 918.28424072 9.3560400009
          201.48278809 1000 9.3560400009 208.64428711 918.28424072 100
          201.48278809 1000 100 457.51248169 701.30767822 100
          457.51248169 701.30767822 48.603900909 356.79675293 755.88745117 77.260299683
          356.79675293 755.88745117 0 357.43334961 691.15783691 77.260299683
          357.89892578 643.8157959 0 357.43334961 691.15783691 32.636798859
          357.8989563 643.8157959 77.260299683 357.43334961 691.15783691 21.405199051
          177.12638855 875.50708008 100 172.89363098 827.10638428 100
          426.16305542 703.19030762 75.354301453 177.12638855 875.50708008 36.210899353
          164.34292603 729.33068848 36.210899353 164.34292603 729.33068848 100
          371.0166626 989.85980225 27.521799088 504.47341919 1000 27.521799088
          371.0166626 989.85980225 100 504.47341919 1000 100
          504.47341919 1000 50.447299957 285.74688721 941.87176514 0
          285.74688721 941.87176514 67.769203186 427.36645508 959.19909668 0
          427.36645508 959.19909668 67.769203186 60.167942047 828.68695068 56.158000946
          63.134906769 894.93804932 56.158000946 60.167942047 828.68695068 7.2512997719e-16
          63.134906769 894.93804932 7.2512997719e-16 506.95025635 944.75976562 36.473999023
          506.95025635 944.75976562 100 120.85682678 731.85510254 31.804000854
          122.99228668 844.13287354 31.804000854 120.85682678 731.85510254 100
          122.99228668 844.13287354 100 436.6534729 768.25726318 100
          307.29556274 887.88659668 37.623199463 296.05145264 771.8684082 37.623199463
          523.12817383 598.57519531 99.033401489 486.32022095 595.88208008 0
          438.17462158 799.16015625 14.923199654 431.13458252 895.90332031 14.923199654
          438.17462158 799.16015625 100 431.13458252 895.90332031 100
          126.67494202 590.28204346 32.929599762 126.67494202 590.28204346 100
          103.23168945 745.83514404 0 93.421440125 817.94189453 0
          103.23168945 745.83514404 87.081100464 88.4504776 854.47918701 87.081100464
          88.4504776 854.47918701 -1.5623600036e-31 93.421440125 817.94189453 57.795501709
          93.421440125 817.94189453 73.693397522 385.98345947 705.60321045 48.603900909
          385.98345947 705.60321045 100 426.1628418 703.19030762 48.603900909
          426.1628418 703.19030762 100 377.67654419 587.93304443 99.033401489
          320.65811157 603.17669678 27.663200378 320.65811157 603.17669678 55.326400757
          321.07107544 635.54864502 82.989601135 321.48406982 667.9206543 55.326400757
          321.48406982 667.9206543 27.663200378 321.18231201 644.26568604 0
          428.98217773 591.68682861 37.890098572 428.9821167 591.68682861 43.398200989
          428.98147583 591.68682861 99.033401489 425.38153076 704.8984375 37.930400848
          523.91143799 568.87347412 60.064800262 523.92614746 568.27282715 -3.5527100789e-15
          301.98187256 833.0592041 87.02230072 301.98187256 833.0592041 70.522201538
          262.83093262 831.44537354 87.02230072 404.67202759 837.29211426 87.02230072
          404.67202759 837.29211426 0 262.83093262 831.44537354 -0
          301.98187256 833.0592041 37.623199463 109.79189301 819.58074951 73.693397522
          109.79189301 819.58074951 0 32.775245667 811.8704834 3.1554400474e-30
          12.764995575 809.86724854 7.1054298987e-15 -2.9662057841e-06 808.58929443 0
          -2.9662057841e-06 808.58929443 73.693397522 12.764995575 809.86724854 10.77630043
          12.764995575 809.86724854 62.634498596 140.5057373 978.36730957 100
          140.5057373 978.36730957 44.699901581 0 957.11022949 100
          77.669410706 968.86077881 44.699901581 2.842170943e-14 957.11022949 44.699901581
          77.669410706 968.86083984 60.13010025 300.73916626 699.26080322 100
          272.45056152 703.30389404 100 370.87905884 689.23614502 100
          370.87905884 689.23620605 21.405199051 272.45056152 703.30395508 21.405199051
          -1.4210854715e-14 938.28143311 62.634498596 -1.4210854715e-14 938.28143311 6.171860218
          75.98122406 1000 7.5981202126 75.98122406 1000 0
          75.98122406 1000 60.13010025 80.336585999 919.66339111 0
          81.788711548 892.87823486 0 81.788711548 892.87823486 60.13010025
          518.10180664 568.13043213 92.766700745 285.74688721 941.87176514 33.884601593
          314.07080078 945.33721924 0 342.39471436 948.80267334 0
          370.71862793 952.26818848 0 399.0425415 955.73364258 0
          314.07080078 945.33721924 67.769203186 342.39471436 948.80267334 67.769203186
          370.71862793 952.26818848 67.769203186 399.0425415 955.73364258 67.769203186
          427.36645508 959.19909668 33.884601593 61.651424408 861.8125 56.158000946
          60.167942047 828.68695068 28.079000473 63.134906769 894.93804932 28.079000473
          61.651424408 861.8125 0 542.19903564 942.28424072 36.473999023
          506.95025635 944.75976562 68.236999512 542.19903564 942.28424072 100
          121.39069366 759.92456055 31.804000854 121.92456055 787.99395752 31.804000854
          122.4584198 816.06341553 31.804000854 120.85682678 731.85510254 65.902000427
          121.39069366 759.92456055 100 475.76913452 733.0569458 100
          426.11752319 704.98339844 100 429.26016235 580.66168213 100
          307.29556274 887.88659668 100 296.05145264 771.8684082 100
          15.417598724 783.18237305 -2.8766400588e-30 377.67654419 587.93304443 -0
          488.8399353 596.06646729 1.5551399809e-29 523.12817383 598.57519531 1.6920699888e-29
          429.40646362 675.61816406 0 414.17346191 779.81689453 0
          412.57723999 790.73553467 1.2937700721e-29 516.88586426 732.67279053 38.368000031
          475.76913452 733.0569458 15.08769989 429.26086426 580.66168213 37.890098572
          426.16308594 703.19030762 77.474197388 426.328125 696.67980957 37.890098572
          426.32769775 696.67980957 75.354301453 436.6534729 768.25726318 8.3978796005
          15.417598724 783.18237305 62.634498596 412.57723999 790.73553467 75.354301453
          429.40646362 675.61816406 75.354301453 523.91876221 568.57318115 31.942199707
          336.21191406 834.47015381 87.02230072 370.44198608 835.88116455 87.02230072
          404.67202759 837.29211426 58.014900208 404.67202759 837.29211426 29.007400513
          291.19915771 832.61474609 -0 319.56738281 833.78405762 -0
          347.93557739 834.95343018 0 376.30380249 836.1227417 -0
          262.83093262 831.44537354 29.007400513 262.83093262 831.44537354 58.014900208
          109.79189301 819.58074951 36.846698761 63.098342896 814.90618896 2.384999985e-30
          62.280960083 814.82434082 73.693397522 31.140478134 811.70684814 73.693397522
          -2.9662057841e-06 808.58929443 36.846698761 12.764995575 809.86724854 36.70539856
          151.1493988 604.21228027 38.204498291 185.71884155 606.16326904 38.204498291
          116.57996368 602.26135254 69.102203369 151.1493988 604.21228027 100
          185.71884155 606.16326904 100 220.28826904 608.11419678 69.102203369
          409.64202881 917.91229248 68.387397766 439.99911499 918.92510986 36.774700165
          470.35623169 919.93798828 36.774700165 439.99911499 918.92510986 100
          470.35623169 919.93798828 100 500.71331787 920.95080566 68.387397766
          83.001075745 658.66485596 29.785100937 83.001075745 658.66485596 59.570301056
          113.64411926 659.00482178 89.355400085 144.28717041 659.3447876 89.355400085
          174.9302063 659.68475342 89.355400085 205.57325745 660.02471924 59.570301056
          205.57325745 660.02471924 29.785100937 138.14378357 659.27661133 0
          171.85852051 659.6506958 -0 404.38085938 992.39483643 27.521799088
          437.74505615 994.92993164 27.521799088 471.10922241 997.46496582 27.521799088
          371.0166626 989.85980225 63.76089859 404.38085938 992.39483643 100
          437.74505615 994.92993164 100 471.10922241 997.46496582 100
          504.47341919 1000 75.223602295 435.82794189 831.40789795 14.923199654
          433.48126221 863.65557861 14.923199654 438.17462158 799.16015625 43.282100677
          438.17462158 799.16015625 71.641098022 435.82794189 831.40789795 100
          433.48126221 863.65557861 100 431.13458252 895.90332031 71.641098022
          431.13458252 895.90332031 43.282100677 206.25712585 945.52282715 9.3560400009
          203.86994934 972.76141357 9.3560400009 208.64428711 918.28424072 39.570701599
          208.64428711 918.28424072 69.785301208 206.25712585 945.52282715 100
          203.86994934 972.76141357 100 201.48278809 1000 69.785301208
          201.48278809 1000 39.570701599 175.01000977 851.30670166 100
          177.12638855 875.50708008 68.105499268 174.56970215 846.27178955 36.210899353
          172.01300049 817.03649902 36.210899353 169.45631409 787.80126953 36.210899353
          166.89961243 758.565979 36.210899353 164.34292603 729.33068848 68.105499268
          170.043396 794.51446533 100 167.19316101 761.92260742 100
          386.94586182 954.25360107 34.341201782 326.16748047 946.81726074 32.444000244
          356.55667114 950.53546143 32.774200439 61.202846527 851.79595947 27.806200027
          531.34674072 943.04644775 68.402603149 122.2270813 803.90020752 65.389099121
          121.6234436 772.16223145 66.700996399 434.65499878 847.52624512 71.772697449
          433.08493042 869.10186768 57.344600677 434.65640259 847.50708008 42.958499908
          436.22494507 825.95251465 57.432598114 124.06590271 541.54962158 73.426101685
          122.6085434 514.32843018 62.891498566 125.39792633 566.4296875 68.363800049
          97.828125 785.55212402 59.435100555 96.760894775 793.39642334 29.226800919
          357.63186646 670.97229004 39.40019989 357.15603638 719.35656738 26.353300095
          357.19778442 715.10913086 52.861698151 121.92456055 787.99395752 100
          122.4584198 816.06341553 100 122.99228668 844.13287354 65.902000427
          304.48452759 858.88208008 100 301.67352295 829.87750244 100
          298.86248779 800.87298584 100 404.83746338 589.92028809 0
          431.99838257 591.90759277 0 459.15930176 593.89483643 0
          0 906.17791748 -2.3743500062e-30 421.78994751 727.7175293 0
          122.95614624 520.82128906 32.929599762 124.81555176 555.55169678 32.929599762
          122.95614624 520.82128906 100 124.81555176 555.55169678 100
          126.67494202 590.28204346 66.464797974 98.326560974 781.88848877 -0
          103.23168945 745.83514404 29.027000427 103.23168945 745.83514404 58.054100037
          99.536384583 772.99615479 87.081100464 95.841087341 800.15716553 87.081100464
          92.145782471 827.31817627 87.081100464 93.421440125 817.94189453 28.897800446
          88.4504776 854.47918701 58.054100037 88.4504776 854.47918701 29.027000427
          385.98345947 705.60321045 74.301902771 457.51248169 701.30767822 74.301902771
          356.79675293 755.88745117 51.506900787 356.79675293 755.88745117 25.753400803
          357.11505127 723.52264404 77.260299683 357.07229614 727.86956787 -0
          357.34783936 699.85162354 0 357.62338257 671.83374023 0
          357.6661377 667.48681641 77.260299683 357.8989563 643.8157959 25.753400803
          357.8989563 643.8157959 51.506900787 140.5057373 978.36730957 72.349998474
          112.40458679 974.11590576 100 84.303443909 969.86450195 100
          56.202293396 965.61309814 100 28.101146698 961.3616333 100
          51.779605865 964.94396973 44.699901581 25.889802933 961.02709961 44.699901581
          109.08757019 973.61407471 44.699901581 -9.491548667e-07 957.11022949 72.349998474
          335.80911255 694.24847412 100 370.87905884 689.23614502 73.801696777
          370.87905884 689.23614502 47.603500366 272.45056152 703.30395508 47.603500366
          272.45056152 703.30395508 73.801696777 300.77816772 699.25524902 21.405199051
          329.10577393 695.206604 21.405199051 -1.4210854715e-14 938.28143311 34.403198242
          3.1912488937 906.17791748 62.634498596 6.3824977875 874.07434082 62.634498596
          9.5737466812 841.97076416 62.634498596 6.3824977875 874.07434082 3.5527100789e-15
          9.5737466812 841.97076416 5.3290700947e-15 75.98122406 1000 33.86410141
          77.433013916 973.22113037 -0 78.884796143 946.44226074 -0
          79.042503357 943.5333252 60.13010025 80.415611267 918.20574951 60.13010025
          81.788711548 892.87823486 30.065099716 518.10180664 568.13043213 30.922199249
          518.10180664 568.13043213 61.844501495 466.41360474 771.90008545 100
          426.93716431 672.5581665 100 427.71148682 641.92602539 100
          428.48583984 611.29382324 100 475.76913452 733.0569458 71.695899963
          475.76913452 733.0569458 43.391799927 429.26049805 580.66168213 68.945098877
          426.99163818 670.43157959 37.890098572 427.65515137 644.18334961 37.890098572
          428.31866455 617.93511963 37.890098572 428.98178101 591.68682861 71.215797424
          426.11749268 704.98339844 68.944999695 465.77679443 771.82214355 8.3978796005
          494.90011597 775.38696289 8.3978796005 436.6534729 768.25726318 38.931900024
          436.6534729 768.25726318 69.466003418 15.417598724 783.18237305 31.317199707
          415.97363281 768.84924316 75.354301453 419.37005615 746.96289062 75.354301453
          422.76644897 725.07659912 75.354301453 415.13320923 773.25189209 63.909801483
          417.76004028 755.2835083 52.147899628 420.54708862 736.21911621 39.668598175
          423.43215942 716.48443604 26.750499725 426.32992554 696.66265869 13.775400162
          429.40646362 675.61816406 26.024200439 429.40646362 675.61816406 50.632198334
          307.29556274 887.88659668 68.811599731 304.63870239 860.47290039 37.623199463
          299.0166626 802.46380615 37.623199463 296.05145264 771.8684082 68.811599731
          523.12817383 598.57519531 66.02230072 523.12817383 598.57519531 33.011100769
          491.74594116 596.27905273 99.033401489 460.3637085 593.98297119 99.033401489
          377.67654419 587.93304443 33.011100769 377.67654419 587.93304443 66.02230072
          403.32901001 589.80993652 99.033401489 425.59820557 701.66784668 0
          421.959198 726.55987549 0 417.98171997 753.76721191 -0
          412.57723999 790.73553467 52.709499359 412.57723999 790.73553467 27.664300919
          425.8036499 704.93908691 45.729198456 425.88842773 704.9586792 49.758701324
          0 933.41693115 5.2366700172 321.05090332 633.96630859 21.721599579
          321.06149292 634.79650879 47.148300171 167.79437256 605.15167236 69.731300354
          196.70800781 606.78344727 69.151298523 136.97109985 603.41210938 68.924003601
          455.17767334 919.43157959 69.091300964 156.59803772 659.48138428 62.721401215
          178.0342865 659.71917725 45.087100983 150.07820129 659.40905762 31.589599609
          107.05158997 658.93170166 50.380599976 119.32949829 659.06787109 28.087900162
          131.65559387 659.20465088 58.990898132 203.98109436 971.49334717 41.975299835
          206.34828186 944.48272705 55.210800171 204.34690857 967.31915283 72.654701233
          171.08320618 806.40447998 68.220497131 173.7258606 836.6227417 67.45110321
          168.17541504 773.15441895 67.45110321 448.24108887 995.72741699 53.601699829
          426.1862793 994.05163574 75.442001343 422.31500244 993.75750732 51.221698761
          452.24130249 996.03137207 77.996299744 475.6477356 997.80981445 63.894500732
          398.66311646 991.96038818 70.099098206 371.73599243 835.93450928 33.534000397
          336.19628906 834.46954346 30.995500565 326.22753906 834.05859375 57.250999451
          353.15939331 835.16876221 59.74420166 380.0987854 836.2791748 63.95690155
          38.15970993 812.4095459 50.709999084 65.21068573 815.11767578 39.553600311
          37.930683136 812.38659668 23.104999542 40.216796875 963.19464111 70.734100342
          103.98914337 972.8427124 75.216499329 319.01177979 696.64923096 75.658401489
          335.65722656 694.27020264 52.099300385 306.33752441 698.46069336 48.655899048
          4.8417482376 889.57409668 30.452100754 7.8228993416 859.58410645 31.488599777
          2.2216968536 915.93145752 26.823099136 10.697096825 830.67004395 24.475299835
          79.694534302 931.50634766 32.564098358 490.14901733 596.16223145 19.09569931
          403.43615723 589.81774902 56.496898651 473.32116699 594.93096924 72.92440033
          495.35528564 596.54315186 51.271900177 455.2086792 593.60577393 37.56370163
          406.77755737 590.06225586 24.758899689 502.02615356 597.03125 77.79360199
          416.78500366 761.95306396 25.581600189 420.14053345 739.00018311 18.815000534
          414.95089722 774.4989624 44.05670166 493.44934082 732.89178467 77.021202087
          427.30831909 657.88934326 70.445602417 428.20822144 622.29144287 66.631896973
          472.13641357 772.60058594 33.370800018 471.53582764 772.52703857 65.535598755
          423.46975708 720.54443359 59.936901093 420.96289062 736.69854736 60.142299652
          304.79418945 862.07714844 74.278701782 299.3526001 805.92987061 80.343902588
        </DataArray>
      </Points>
      <Cells>
        <DataArray type="Int64" Name="connectivity" format="ascii" RangeMin="0" RangeMax="433">
          81 82 374 3 83 82
          2 82 81 80 0 1
          373 84 85 374 83 84
          80 5 0 374 82 83
          84 4 85 81 374 80
          374 373 80 373 85 5
          80 373 5 373 374 84
          191 375 377 10 377 190
          192 375 191 10 191 377
          376 375 192 193 8 376
          376 189 375 376 8 189
          375 188 377 375 189 188
          6 376 192 6 193 376
          377 188 9 190 377 9
          198 199 378 194 195 11
          198 378 197 378 199 196
          13 199 198 7 197 194
          199 12 196 196 195 378
          378 195 194 197 378 194
          15 202 201 200 16 14
          206 18 208 204 205 380
          17 205 204 380 205 206
          204 380 379 208 380 206
          200 201 382 381 383 384
          200 382 383 379 380 381
          204 379 203 382 201 202
          381 207 383 200 383 16
          379 384 203 383 382 384
          383 207 16 380 208 381
          381 208 207 381 384 379
          382 202 384 384 202 203
          227 225 19 21 229 228
          227 386 225 227 228 386
          386 229 387 385 226 225
          386 385 225 385 232 226
          226 232 20 228 229 386
          230 22 231 387 385 386
          387 229 230 231 385 387
          231 387 230 232 385 231
          36 239 238 234 233 32
          234 235 389 388 33 389
          235 236 389 238 239 390
          35 235 234 234 389 233
          239 37 241 389 33 233
          388 240 33 236 237 388
          238 390 237 241 240 390
          390 239 241 389 236 388
          390 240 388 390 388 237
          394 395 391 394 391 392
          216 42 395 41 216 215
          215 395 394 212 209 38
          391 211 210 42 39 211
          214 394 392 210 209 393
          214 392 213 214 215 394
          392 393 396 213 392 396
          210 393 391 393 392 391
          396 212 40 213 396 40
          215 216 395 395 42 211
          391 395 211 393 209 396
          396 209 212 136 242 135
          127 128 43 135 242 134
          244 130 129 136 131 242
          243 127 132 136 45 131
          133 134 244 132 127 44
          244 134 242 128 127 243
          128 243 129 243 132 133
          46 136 135 242 131 130
          242 130 244 133 244 243
          243 244 129 138 245 49
          48 139 137 139 50 140
          245 138 47 245 140 49
          137 139 245 137 245 47
          245 139 140 246 141 51
          142 246 51 246 142 52
          143 246 52 263 54 146
          247 146 145 262 247 261
          261 248 148 263 247 262
          147 144 53 145 248 247
          145 144 248 148 147 55
          148 248 147 248 144 147
          56 263 262 263 146 247
          261 247 248 219 217 62
          219 220 252 223 224 250
          223 250 222 221 220 64
          250 249 222 250 224 218
          222 249 221 251 252 249
          65 223 222 224 63 218
          249 250 251 219 252 217
          252 251 217 250 218 251
          251 218 217 220 221 252
          252 221 249 274 275 253
          253 273 254 255 67 276
          253 255 273 275 255 253
          273 272 254 275 67 255
          276 66 255 255 66 273
          278 277 68 281 282 74
          73 284 285 279 280 256
          74 73 256 279 256 278
          281 74 256 257 69 277
          278 256 257 256 73 257
          257 73 283 70 280 279
          73 285 283 278 257 277
          285 72 283 283 69 257
          283 72 69 74 284 73
          74 282 284 282 71 284
          280 281 256 76 164 286
          34 77 286 286 77 75
          24 77 287 287 77 34
          287 34 164 291 292 259
          29 27 260 289 291 259
          260 27 290 29 260 259
          31 258 29 288 290 25
          292 293 31 259 260 288
          260 290 288 26 291 289
          296 30 294 258 295 296
          288 289 259 293 28 295
          31 293 258 258 293 295
          258 296 294 258 294 27
          29 258 27 259 292 31
          259 31 29 172 93 92
          397 398 400 401 173 95
          93 94 92 98 180 181
          98 181 93 98 93 399
          176 98 177 399 93 172
          181 94 93 174 175 397
          177 98 398 178 398 397
          96 179 175 179 178 397
          177 398 178 400 398 399
          180 98 176 97 180 176
          179 397 175 401 400 173
          98 399 398 174 401 95
          174 397 401 400 399 172
          173 400 172 401 397 400
          182 73 99 100 69 283
          100 283 182 73 74 99
          182 283 73 105 102 103
          101 404 183 73 184 74
          186 105 103 105 101 102
          404 402 403 402 404 187
          101 105 404 106 104 185
          69 183 283 404 105 187
          106 187 186 185 184 402
          283 403 73 183 403 283
          187 106 402 104 106 186
          403 184 73 402 184 403
          187 105 186 402 106 185
          183 404 403 112 299 406
          300 112 405 297 406 298
          109 301 305 300 405 301
          297 298 107 304 112 406
          405 112 302 305 303 111
          112 300 299 112 110 302
          297 304 406 304 110 112
          108 304 297 405 302 303
          305 405 303 305 301 405
          406 299 298 310 114 113
          407 113 306 409 310 407
          29 312 408 31 312 29
          27 306 115 116 31 29
          116 29 308 407 310 113
          307 27 115 308 29 27
          307 308 27 309 310 409
          311 117 309 408 407 27
          29 408 27 27 407 306
          309 409 311 311 409 312
          408 409 407 408 312 409
          410 315 314 411 410 317
          411 317 318 102 105 318
          187 316 413 187 106 316
          410 270 317 410 411 315
          411 316 315 413 316 411
          318 105 413 119 412 313
          410 314 412 270 410 412
          413 411 318 412 314 313
          313 314 118 105 187 413
          110 112 122 121 320 120
          320 321 110 323 414 324
          414 323 322 414 123 324
          319 110 122 110 322 112
          320 110 319 120 320 319
          125 323 324 324 123 124
          414 322 110 321 414 110
          321 123 414 326 126 90
          326 90 325 90 171 325
          171 91 325 331 425 332
          161 162 332 331 149 425
          337 427 87 333 87 163
          151 337 333 330 88 151
          151 88 337 87 86 163
          166 78 164 166 164 34
          34 77 166 337 88 330
          328 78 166 329 328 426
          427 426 335 87 336 86
          330 329 427 166 77 334
          334 77 165 336 427 335
          427 336 87 333 337 87
          426 328 166 334 426 166
          335 426 334 337 330 427
          427 329 426 78 150 164
          164 150 338 338 77 34
          428 339 341 341 339 167
          428 340 339 57 327 342
          429 428 341 342 327 429
          342 429 341 168 106 187
          343 105 154 343 187 105
          168 187 343 105 102 154
          348 349 431 349 350 430
          348 431 345 352 353 165
          347 344 169 348 345 344
          347 348 344 349 430 431
          350 351 165 430 34 346
          351 352 165 351 158 352
          353 170 166 77 353 166
          165 353 77 430 346 431
          431 346 345 432 355 93
          355 98 93 58 355 354
          92 265 264 433 93 356
          355 432 354 93 98 356
          357 433 356 433 357 266
          93 433 92 93 92 432
          153 266 357 357 356 59
          432 92 264 432 264 152
          354 432 152 266 265 433
          433 265 92 337 416 364
          417 337 361 417 360 421
          61 269 415 415 419 418
          269 268 419 416 363 364
          417 361 360 363 79 364
          418 421 358 362 363 416
          418 417 421 419 417 418
          359 415 418 268 420 86
          358 421 60 421 360 60
          337 364 88 337 88 361
          267 155 420 157 415 359
          157 156 415 420 362 416
          420 416 86 269 419 415
          268 86 419 419 337 417
          268 267 420 420 155 362
          169 368 347 422 349 348
          366 350 423 351 365 158
          350 366 365 351 350 365
          424 347 368 348 347 424
          367 422 159 423 350 349
          369 160 159 348 424 422
          423 349 422 271 423 367
          422 369 159 367 423 422
          424 368 369 422 424 369
          23 164 78 287 164 23
          76 78 164 286 164 34
          338 34 164 156 61 415
          366 423 271 119 372 412
          412 372 270 371 370 77
          371 77 338 430 350 370
          370 371 430 370 89 165
          350 89 370 165 77 370
          165 89 350 430 371 338
          430 338 34 416 87 86
          337 87 416 419 86 87
          419 87 337
        </DataArray>
        <DataArray type="Int64" Name="offsets" format="ascii" RangeMin="3" RangeMax="1551">
          3 6 9 12 15 18
          21 24 27 30 33 36
          39 42 45 48 51 54
          57 60 63 66 69 72
          75 78 81 84 87 90
          93 96 99 102 105 108
          111 114 117 120 123 126
          129 132 135 138 141 144
          147 150 153 156 159 162
          165 168 171 174 177 180
          183 186 189 192 195 198
          201 204 207 210 213 216
          219 222 225 228 231 234
          237 240 243 246 249 252
          255 258 261 264 267 270
          273 276 279 282 285 288
          291 294 297 300 303 306
          309 312 315 318 321 324
          327 330 333 336 339 342
          345 348 351 354 357 360
          363 366 369 372 375 378
          381 384 387 390 393 396
          399 402 405 408 411 414
          417 420 423 426 429 432
          435 438 441 444 447 450
          453 456 459 462 465 468
          471 474 477 480 483 486
          489 492 495 498 501 504