<?xml version="1.0"?>
<VTKFile type="UnstructuredGrid" version="0.1" byte_order="LittleEndian" header_type="UInt32" compressor="vtkZLibDataCompressor">
  <UnstructuredGrid>
    <Piece NumberOfPoints="767" NumberOfCells="1443">
      <PointData>
      </PointData>
      <CellData>
        <DataArray type="Float64" Name="Partition" format="ascii" RangeMin="0" RangeMax="0">
          0 0 0 0 0 0
          0 0 0 0 0 0
          0 0 0 0 0 0
          0 0 0 0 0 0
          0 0 0 0 0 0
          0 0 0 0 0 0
          0 0 0 0 0 0
          0 0 0 0 0 0
          0 0 0 0 0 0
          0 0 0 0 0 0
          0 0 0 0 0 0
          0 0 0 0 0 0
          0 0 0 0 0 0
          0 0 0 0 0 0
          0 0 0 0 0 0
          0 0 0 0 0 0
          0 0 0 0 0 0
          0 0 0 0 0 0
          0 0 0 0 0 0
          0 0 0 0 0 0
          0 0 0 0 0 0
          0 0 0 0 0 0
          0 0 0 0 0 0
          0 0 0 0 0 0
          0 0 0 0 0 0
          0 0 0 0 0 0
          0 0 0 0 0 0
          0 0 0 0 0 0
          0 0 0 0 0 0
          0 0 0 0 0 0
          0 0 0 0 0 0
          0 0 0 0 0 0
          0 0 0 0 0 0
          0 0 0 0 0 0
          0 0 0 0 0 0
          0 0 0 0 0 0
          0 0 0 0 0 0
          0 0 0 0 0 0
          0 0 0 0 0 0
          0 0 0 0 0 0
          0 0 0 0 0 0
          0 0 0 0 0 0
          0 0 0 0 0 0
          0 0 0 0 0 0
          0 0 0 0 0 0
          0 0 0 0 0 0
          0 0 0 0 0 0
          0 0 0 0 0 0
          0 0 0 0 0 0
          0 0 0 0 0 0
          0 0 0 0 0 0
          0 0 0 0 0 0
          0 0 0 0 0 0
          0 0 0 0 0 0
          0 0 0 0 0 0
          0 0 0 0 0 0
          0 0 0 0 0 0
          0 0 0 0 0 0
          0 0 0 0 0 0
          0 0 0 0 0 0
          0 0 0 0 0 0
          0 0 0 0 0 0
          0 0 0 0 0 0
          0 0 0 0 0 0
          0 0 0 0 0 0
          0 0 0 0 0 0
          0 0 0 0 0 0
          0 0 0 0 0 0
          0 0 0 0 0 0
          0 0 0 0 0 0
          0 0 0 0 0 0
          0 0 0 0 0 0
          0 0 0 0 0 0
          0 0 0 0 0 0
          0 0 0 0 0 0
          0 0 0 0 0 0
          0 0 0 0 0 0
          0 0 0 0 0 0
          0 0 0 0 0 0
          0 0 0 0 0 0
          0 0 0 0 0 0
          0 0 0 0 0 0
          0 0 0 0 0 0
          0 0 0 0 0 0
          0 0 0 0 0 0
          0 0 0 0 0 0
          0 0 0 0 0 0
          0 0 0 0 0 0
          0 0 0 0 0 0
          0 0 0 0 0 0
          0 0 0 0 0 0
          0 0 0 0 0 0
          0 0 0 0 0 0
          0 0 0 0 0 0
          0 0 0 0 0 0
          0 0 0 0 0 0
          0 0 0 0 0 0
          0 0 0 0 0 0
          0 0 0 0 0 0
          0 0 0 0 0 0
          0 0 0 0 0 0
          0 0 0 0 0 0
          0 0 0 0 0 0
          0 0 0 0 0 0
          0 0 0 0 0 0
          0 0 0 0 0 0
          0 0 0 0 0 0
          0 0 0 0 0 0
          0 0 0 0 0 0
          0 0 0 0 0 0
          0 0 0 0 0 0
          0 0 0 0 0 0
          0 0 0 0 0 0
          0 0 0 0 0 0
          0 0 0 0 0 0
          0 0 0 0 0 0
          0 0 0 0 0 0
          0 0 0 0 0 0
          0 0 0 0 0 0
          0 0 0 0 0 0
          0 0 0 0 0 0
          0 0 0 0 0 0
          0 0 0 0 0 0
          0 0 0 0 0 0
          0 0 0 0 0 0
          0 0 0 0 0 0
          0 0 0 0 0 0
          0 0 0 0 0 0
          0 0 0 0 0 0
          0 0 0 0 0 0
          0 0 0 0 0 0
          0 0 0 0 0 0
          0 0 0 0 0 0
          0 0 0 0 0 0
          0 0 0 0 0 0
          0 0 0 0 0 0
          0 0 0 0 0 0
          0 0 0 0 0 0
          0 0 0 0 0 0
          0 0 0 0 0 0
          0 0 0 0 0 0
          0 0 0 0 0 0
          0 0 0 0 0 0
          0 0 0 0 0 0
          0 0 0 0 0 0
          0 0 0 0 0 0
          0 0 0 0 0 0
          0 0 0 0 0 0
          0 0 0 0 0 0
          0 0 0 0 0 0
          0 0 0 0 0 0
          0 0 0 0 0 0
          0 0 0 0 0 0
          0 0 0 0 0 0
          0 0 0 0 0 0
          0 0 0 0 0 0
          0 0 0 0 0 0
          0 0 0 0 0 0
          0 0 0 0 0 0
          0 0 0 0 0 0
          0 0 0 0 0 0
          0 0 0 0 0 0
          0 0 0 0 0 0
          0 0 0 0 0 0
          0 0 0 0 0 0
          0 0 0 0 0 0
          0 0 0 0 0 0
          0 0 0 0 0 0
          0 0 0 0 0 0
          0 0 0 0 0 0
          0 0 0 0 0 0
          0 0 0 0 0 0
          0 0 0 0 0 0
          0 0 0 0 0 0
          0 0 0 0 0 0
          0 0 0 0 0 0
          0 0 0 0 0 0
          0 0 0 0 0 0
          0 0 0 0 0 0
          0 0 0 0 0 0
          0 0 0 0 0 0
          0 0 0 0 0 0
          0 0 0 0 0 0
          0 0 0 0 0 0
          0 0 0 0 0 0
          0 0 0 0 0 0
          0 0 0 0 0 0
          0 0 0 0 0 0
          0 0 0 0 0 0
          0 0 0 0 0 0
          0 0 0 0 0 0
          0 0 0 0 0 0
          0 0 0 0 0 0
          0 0 0 0 0 0
          0 0 0 0 0 0
          0 0 0 0 0 0
          0 0 0 0 0 0
          0 0 0 0 0 0
          0 0 0 0 0 0
          0 0 0 0 0 0
          0 0 0 0 0 0
          0 0 0 0 0 0
          0 0 0 0 0 0
          0 0 0 0 0 0
          0 0 0 0 0 0
          0 0 0 0 0 0
          0 0 0 0 0 0
          0 0 0 0 0 0
          0 0 0 0 0 0
          0 0 0 0 0 0
          0 0 0 0 0 0
          0 0 0 0 0 0
          0 0 0 0 0 0
          0 0 0 0 0 0
          0 0 0 0 0 0
          0 0 0 0 0 0
          0 0 0 0 0 0
          0 0 0 0 0 0
          0 0 0 0 0 0
          0 0 0 0 0 0
          0 0 0 0 0 0
          0 0 0 0 0 0
          0 0 0 0 0 0
          0 0 0 0 0 0
          0 0 0 0 0 0
          0 0 0 0 0 0
          0 0 0 0 0 0
          0 0 0 0 0 0
          0 0 0 0 0 0
          0 0 0 0 0 0
          0 0 0 0 0 0
          0 0 0 0 0 0
          0 0 0 0 0 0
          0 0 0 0 0 0
          0 0 0 0 0 0
          0 0 0 0 0 0
          0 0 0 0 0 0
          0 0 0 0 0 0
          0 0 0 0 0 0
          0 0 0 0 0 0
          0 0 0
        </DataArray>
      </CellData>
      <Points>
        <DataArray type="Float32" Name="Points" NumberOfComponents="3" format="ascii" RangeMin="733.1411582" RangeMax="1417.7446879">
          823.24127197 603.92687988 100 824.88397217 521.24078369 100
          905.97424316 775.45123291 0 769.14910889 572.50085449 0
          1000 701.38232422 42.272701263 1000 701.38232422 100
          990.72387695 805.77398682 100 980.45617676 442.01699829 0
          926.15344238 644.0592041 0 797.27679443 1000 0
          797.27679443 1000 69.880302429 756.49536133 721.75292969 0
          746.19580078 516.45446777 0 836.84020996 507.44692993 -0
          864.9753418 927.1305542 100 996.01147461 939.45715332 100
          535.69818115 829.38031006 100 784.04486084 934.07476807 0
          741.81262207 811.39434814 100 880.24938965 545.24346924 0
          838.86785889 550.97943115 0 777.91467285 893.75195312 0
          779.56726074 760.23590088 0 567.2175293 858.52502441 0
          592.65570068 854.25439453 0 648.69445801 844.84637451 0
          835.27789307 902.2388916 0 830.64093018 1000 0
          830.64093018 1000 68.185203552 577.44781494 939.80877686 100
          553.14678955 782.5166626 100 828.78265381 735.65441895 100
          827.91497803 863.39788818 100 920.86334229 956.6862793 0
          1000 960.60375977 0 1000 960.60375977 61.16109848
          854.3168335 913.2923584 -0 867.97113037 913.82287598 -0
          974.49108887 917.96142578 0 824.33642578 548.80279541 100
          823.78881836 576.36486816 100 525.93389893 779.18566895 100
          516.88586426 732.67279053 100 509.92230225 696.87542725 100
          731.19995117 697.02380371 100 980.12091064 531.40014648 -0
          523.92614746 568.27282715 -3.5527100789e-15 879.60571289 584.425354 0
          881.57244873 464.70718384 0 634.65985107 766.72735596 100
          641.73150635 671.9329834 100 646.89001465 602.78399658 100
          602.74023438 506.80377197 100 659.55395508 571.58868408 0
          1000 1000 100 1000 1000 0
          833.73223877 934.82592773 0 832.18658447 967.41296387 0
          830.64093018 1000 34.092601776 542.19903564 942.28424072 100
          679.69390869 846.86132812 100 798.37487793 843.24200439 100
          625.73828125 731.65588379 100 475.76913452 733.0569458 100
          549.82556152 683.42749023 100 722.4574585 661.83679199 100
          730.62097168 537.64025879 100 523.12817383 598.57519531 1.6920699888e-29
          671.25860596 737.20092773 0 783.33911133 745.67773438 0
          721.43414307 549.82922363 2.4703700271e-29 1000 701.38232422 71.136398315
          996.90795898 736.17956543 100 993.81591797 770.97674561 100
          519.36688232 539.00274658 0 778.7409668 826.99395752 0
          779.15411377 793.6149292 -0 776.4105835 513.45196533 0
          806.62542725 510.44943237 -0 921.10864258 676.90722656 -0
          916.06384277 709.75518799 0 911.01904297 742.60321045 0
          766.61834717 602.35125732 0 764.08764648 632.20166016 -0
          761.55688477 662.05212402 0 759.02612305 691.90252686 0
          947.24224854 957.99212646 0 973.62109375 959.2979126 0
          790.66082764 967.03735352 0 797.27679443 1000 34.940200806
          620.67504883 849.550354 0 897.734375 930.21221924 100
          930.4934082 933.29388428 100 963.25244141 936.37548828 100
          828.56573486 767.590271 100 828.34881592 799.52612305 100
          828.13189697 831.46203613 100 729.40618896 481.02407837 100
          730.0135498 509.33215332 100 778.32781982 860.3729248 0
          699.27874756 739.32012939 0 727.29888916 741.43933105 0
          755.31896973 743.55853271 0 725.34527588 522.51409912 2.480040001e-29
          729.25634766 495.19894409 2.4897099749e-29 1000 960.60375977 32.55039978
          894.60113525 914.85748291 0 921.23114014 915.89215088 0
          947.86108398 916.92675781 0 530.81604004 804.28302002 100
          521.40991211 755.92919922 100 733.85308838 725.61645508 100
          736.50628662 754.20904541 100 739.15942383 782.80169678 100
          913.53991699 540.62902832 -0 946.8303833 536.0145874 0
          1000 806.58825684 79.713897705 1000 826.32788086 25.503499985
          1000 594.07037354 74.285797119 1000 533.19750977 74.23789978
          1000 674.96276855 25.090499878 1000 650.57641602 75.837402344
          1000 934.60644531 48.000999451 1000 441.79101562 74.238296509
          1000 623.96002197 74.640800476 1000 502.70263672 74.250297546
          880.69042969 518.39807129 0 881.13140869 491.5526123 0
          637.01708984 735.12921143 100 639.37426758 703.53112793 100
          644.31079102 637.35845947 100 536.00524902 497.181427 100
          569.3727417 501.99258423 100 632.42840576 570.92553711 4.4408899809e-16
          605.30285645 570.2623291 -0 578.17724609 569.59918213 4.9303800699e-32
          551.05169678 568.93597412 4.4408899809e-16 767.22283936 1000 -0
          737.16882324 1000 -0 707.11486816 1000 -0
          677.06085205 1000 -0 647.00689697 1000 -0
          616.95288086 1000 -0 586.89892578 1000 -0
          556.84490967 1000 -0 562.77069092 1000 100
          591.91931152 1000 100 621.06793213 1000 100
          650.21655273 1000 100 679.36517334 1000 100
          708.51379395 1000 100 737.66241455 1000 100
          766.81103516 1000 100 795.95965576 1000 100
          825.10827637 1000 100 854.25689697 1000 100
          883.40551758 1000 100 912.55413818 1000 100
          941.70275879 1000 100 970.85137939 1000 100
          1000 1000 66.666702271 1000 1000 33.333301544
          858.86743164 1000 -0 887.09393311 1000 -0
          915.32049561 1000 -0 943.54699707 1000 -0
          971.77349854 1000 -0 1000 411.26776123 74.271896362
          1000 437.41848755 24.757799149 1000 472.21994019 74.258796692
          1000 467.59799194 24.750999451 1000 497.75646973 24.756299973
          1000 527.92156982 24.757600784 1000 563.59942627 74.269996643
          1000 558.08642578 24.759700775 1000 588.24078369 24.794500351
          1000 618.48974609 25.044500351 1000 649.02478027 26.072900772
          1000 738.07128906 28.355699539 1000 751.94171143 76.115402222
          1000 888.56201172 24.879899979 1000 924.97467041 72.189697266
          1000 765.28430176 21.019599915 1000 858.25134277 24.915800095
          1000 894.79705811 73.98639679 1000 779.84210205 75.733299255
          1000 792.90112305 24.844900131 1000 833.59143066 75.658599854
          1000 864.54455566 74.498199463 1000 730.67932129 60.388000488
          1000 919.87408447 25.705600739 1000 637.83575439 50.723201752
          1000 673.41290283 56.415100098 1000 807.67724609 53.715999603
          1000 907.25457764 48.842601776 1000 765.7253418 48.410800934
          1000 455.4677124 49.112300873 1000 424.97171021 49.189998627
          1000 485.77331543 49.144599915 1000 516.12744141 49.148601532
          1000 546.48095703 49.152599335 1000 576.81671143 49.184299469
          1000 607.06072998 49.478401184 1000 845.67175293 50.11700058
          1000 877.1619873 49.300800323 973.94256592 564.15899658 100
          724.97296143 871.44451904 100 973.89678955 686.28051758 100
          1000 426.92837524 100 1000 457.42324829 100
          1000 487.91815186 100 1000 518.4130249 100
          1000 548.90789795 100 1000 579.402771 100
          1000 609.89764404 100 1000 640.39257812 100
          1000 670.88745117 100 1000 420.26412964 0
          1000 450.28302002 0 1000 480.30187988 0
          1000 510.32073975 0 1000 540.33959961 0
          1000 570.35845947 0 1000 600.37731934 0
          1000 630.39624023 0 1000 660.4151001 0
          1000 690.43395996 0 1000 720.45281982 0
          1000 750.47167969 0 1000 780.49053955 0
          1000 810.50939941 0 1000 840.52825928 0
          1000 870.54718018 0 1000 900.56604004 0
          1000 930.5848999 0 1000 731.24407959 100
          1000 761.10583496 100 1000 790.96765137 100
          1000 820.82940674 100 1000 850.69116211 100
          1000 880.55291748 100 1000 910.41467285 100
          1000 940.27648926 100 1000 970.13824463 100
          466.41360474 771.90008545 100 496.17376709 775.54284668 100
          709.36413574 845.95648193 100 739.03442383 845.05169678 100
          768.70465088 844.14685059 100 544.09893799 732.4185791 100
          571.31207275 732.16430664 100 598.52514648 731.91009521 100
          611.09619141 675.76446533 100 580.46087646 679.5960083 100
          668.64013672 668.56756592 100 695.54882812 665.20220947 100
          483.41854858 701.14434814 100 947.99243164 640.44140625 100
          528.894104 667.34130859 100 946.87884521 518.47216797 100
          694.3961792 693.53594971 100 606.0413208 627.8314209 100
          555.33459473 760.67492676 100 762.4486084 551.34783936 100
          701.47393799 524.56341553 100 587.2479248 478.66467285 100
          582.65020752 710.84838867 100 767.35058594 579.51629639 100
          757.24987793 493.5098877 100 883.22723389 767.64257812 100
          674.36480713 478.32174683 100 687.60827637 608.8270874 100
          737.50805664 627.42138672 100 795.87237549 948.26391602 100
          587.8170166 908.63226318 100 688.72302246 922.36077881 2.4205900043e-29
          603.35827637 622.92993164 2.0164599365e-29 658.56268311 622.6204834 2.2359799895e-29
          821.52355957 607.78369141 2.8810001084e-29 613.00811768 797.31195068 2.0924500604e-29
          604.08380127 912.63452148 2.0818199803e-29 814.32904053 667.48828125 2.865260145e-29
          605.61083984 516.94116211 2.0025599885e-29 584.25811768 802.52270508 1.979210044e-29
          559.77679443 473.44049072 1.8108700747e-29 508.48602295 625.31829834 1.6395999835e-29
          489.53335571 653.07226562 1.5701900702e-29 836.1315918 829.94049072 2.9870201445e-29
          642.24645996 791.9118042 2.2075899765e-29 681.04675293 841.09100342 2.3725299271e-29
          720.94848633 921.11401367 2.5485099703e-29 634.36090088 900.86553955 2.1997199948e-29
          631.79431152 925.45904541 2.1948099267e-29 833.9463501 747.06365967 2.9604501353e-29
          535.40008545 865.34173584 1.7984199908e-29 554.88616943 808.07519531 1.8635800689e-29
          874.63476562 612.37799072 3.0932499263e-29 574.34112549 622.84362793 1.9010199966e-29
          871.78314209 640.9821167 3.0880800081e-29 860.03613281 852.20233154 3.0869000751e-29
          887.40167236 874.1829834 3.2005001501e-29 924.63189697 826.38928223 3.3382799746e-29
          898.52575684 810.43676758 3.2309999591e-29 578.27325439 519.00592041 1.8942700635e-29
          831.17547607 775.20379639 2.9554998935e-29 903.45666504 842.23986816 3.2574700606e-29
          651.65856934 649.41888428 2.2143000368e-29 846.19439697 624.81726074 2.9828098811e-29
          681.94470215 639.73297119 2.3326800292e-29 665.15155029 897.00048828 2.321360075e-29
          698.86968994 817.63690186 2.4383699488e-29 633.02832031 704.39483643 2.152050069e-29
          501.759552 723.50970459 1.6340200529e-29 499.67044067 783.02954102 1.6385399697e-29
          594.42895508 774.07189941 2.0135299651e-29 897.56072998 1000 74.507896423
          537.11218262 1000 34.095199585 541.33135986 1000 69.710700989
          576.39807129 1000 73.816200256 692.67388916 1000 24.906000137
          603.21661377 1000 24.96159935 572.8793335 1000 26.292200089
          900.08056641 1000 25.629800797 693.87683105 1000 74.344200134
          633.11627197 1000 24.777200699 606.13140869 1000 74.217201233
          722.80993652 1000 25.382600784 755.12487793 1000 74.470703125
          662.92590332 1000 24.740299225 635.40716553 1000 74.25050354
          664.62261963 1000 74.281700134 755.01898193 1000 27.057300568
          723.50415039 1000 74.689697266 866.34588623 1000 73.073600769
          972.47680664 1000 50.391399384 959.01104736 1000 73.912902832
          927.9510498 1000 75.065200806 869.45874023 1000 26.338899612
          959.85345459 1000 26.844900131 929.44696045 1000 25.972799301
          649.33392334 1000 49.12789917 590.58551025 1000 49.422401428
          563.64379883 1000 50.429798126 768.98687744 1000 51.571098328
          738.67651367 1000 50.563201904 883.39031982 1000 49.740100861
          913.85321045 1000 50.679000854 943.69384766 1000 50.802101135
          619.83880615 1000 49.238700867 708.35870361 1000 49.575698853
          678.72637939 1000 49.27230072 855.47198486 1000 49.857299805
          944.66186523 910.60632324 100 796.43737793 591.39593506 100
          854.15698242 815.78509521 100 674.83203125 637.07397461 100
          970.66906738 752.07763672 100 896.78466797 975.81610107 100
          507.86035156 809.52850342 100 839.09332275 974.58416748 100
          664.75006104 974.01037598 100 705.99975586 635.51586914 100
          723.09997559 974.02490234 100 752.24945068 974.02636719 100
          604.14801025 972.9831543 100 561.63769531 656.57983398 100
          663.47039795 749.59893799 100 619.04882812 652.91967773 100
          559.00201416 706.46807861 100 700.42089844 493.18972778 100
          695.03216553 872.13812256 100 713.09033203 748.0824585 100
          855.61608887 751.92828369 100 974.00994873 625.14587402 100
          974.00231934 442.17752075 100 973.96313477 472.67611694 100
          973.93182373 503.17306519 100 973.91479492 533.66711426 100
          795.07226562 563.23602295 100 973.97351074 594.65222168 100
          972.90466309 718.13439941 100 974.00305176 655.65618896 100
          854.54650879 783.74511719 100 974.17443848 826.66308594 100
          881.01690674 952.44189453 100 970.31414795 897.08105469 100
          854.36254883 848.42614746 100 552.08605957 971.81970215 100
          556.81799316 915.7232666 100 971.81585693 864.02575684 100
          781.38061523 974.04058838 100 693.94519043 974.02642822 100
          867.80841064 975.38391113 100 756.07678223 871.25231934 100
          810.40759277 974.14758301 100 577.6184082 976.59979248 100
          635.09832764 973.80560303 100 581.27142334 530.37609863 100
          851.85626221 534.70263672 100 969.22320557 788.38464355 100
          805.66149902 813.67700195 100 917.36779785 905.97747803 100
          951.88244629 968.2164917 100 975.81591797 962.19580078 100
          925.38928223 973.01141357 100 560.6194458 810.30041504 100
          792.08892822 873.57727051 100 494.9309082 753.28729248 100
          774.22161865 807.77020264 100 588.12255859 758.45111084 100
          534.20916748 703.17822266 100 592.21508789 653.13269043 100
          615.34014893 752.18884277 100 606.48114014 705.52563477 100
          662.44897461 691.26184082 100 759.394104 522.64105225 100
          758.86413574 707.76422119 100 768.16864014 769.55621338 100
          665.41192627 717.48675537 100 664.87823486 872.83514404 100
          578.50744629 786.0960083 100 941.96807861 808.80389404 100
          797.56896973 752.22424316 100 881.03503418 800.20727539 100
          661.48822021 782.21832275 100 945.30834961 844.784729 100
          947.43170166 701.86218262 100 763.95367432 738.09417725 100
          691.08563232 821.6942749 100 737.83221436 948.10479736 100
          679.42260742 948.14361572 100 708.65466309 948.14447021 100
          709.88134766 897.28277588 100 852.33990479 950.13037109 100
          713.07202148 774.10205078 100 796.41204834 622.80682373 100
          800.6673584 784.89031982 100 907.04925537 953.51794434 100
          824.52557373 948.49365234 100 947.0645752 487.94277954 100
          574.2734375 628.52783203 100 646.51654053 480.34713745 100
          616.91644287 480.45874023 100 938.60864258 879.94311523 100
          945.85791016 734.03240967 100 792.80450439 535.6472168 100
          942.90704346 769.02593994 100 947.75976562 609.96325684 100
          857.38031006 720.42089844 100 947.89093018 670.99542236 100
          853.79284668 887.05072021 100 881.92279053 833.00219727 100
          649.91656494 948.10717773 100 739.7434082 896.94354248 100
          766.95202637 948.18695068 100 618.62158203 947.21075439 100
          548.40496826 524.84765625 100 612.08837891 535.31896973 100
          947.62799072 457.40795898 100 850.48895264 504.52587891 100
          851.77728271 563.49584961 100 850.02752686 591.93743896 100
          947.23876953 579.48083496 100 946.82910156 548.98626709 100
          887.08300781 899.42504883 100 566.52001953 839.02593994 100
          820.08746338 894.65246582 100 608.91571045 781.00036621 100
          752.02563477 680.1105957 100 920.83178711 686.63562012 100
          478.9647522 644.18951416 100 689.08654785 763.10125732 100
          732.72735596 572.52294922 100 794.77819824 716.67059326 100
          753.19500732 922.48687744 100 788.79888916 507.425354 100
          911.44238281 785.14959717 100 666.91333008 509.29556274 100
          723.82476807 922.48150635 100 882.88311768 549.48205566 100
          768.48144531 610.1897583 100 648.63446045 847.90997314 100
          493.97061157 669.47198486 100 586.4710083 599.81732178 100
          882.83758545 866.05181885 100 921.66326904 625.77728271 100
          664.92346191 922.70892334 100 718.67089844 605.25274658 100
          598.88787842 817.09851074 100 838.07330322 921.61279297 100
          780.6463623 683.00292969 100 794.90869141 902.16381836 100
          631.27215576 509.12155151 100 781.78729248 923.24743652 100
          823.93963623 635.35083008 100 886.73272705 735.28106689 100
          907.83929443 880.65393066 100 697.93707275 727.67156982 100
          784.95758057 478.2081604 100 543.06982422 864.01947021 100
          848.34191895 620.62701416 100 703.41156006 557.09350586 100
          560.27770996 552.93054199 100 635.18048096 923.34326172 100
          809.49517822 922.86230469 100 916.47528076 533.96881104 100
          915.80810547 750.74578857 100 882.4855957 518.81561279 100
          662.09423828 817.44396973 100 829.66516113 708.52130127 100
          566.78674316 887.98852539 100 680.04858398 897.63452148 100
          694.4118042 922.63354492 100 713.83361816 804.39562988 100
          921.56433105 656.16564941 100 511.4057312 848.23736572 100
          927.48492432 830.98272705 100 909.01428223 818.09912109 100
          541.24609375 632.2923584 100 918.78918457 718.13415527 100
          913.93170166 851.31054688 100 769.86474609 897.91265869 100
          527.48071289 548.19671631 100 592.86889648 564.36187744 100
          919.13647461 472.05001831 100 916.3460083 502.91296387 100
          818.06213379 491.39385986 100 883.35858154 582.62573242 100
          919.37731934 595.44708252 100 916.84466553 564.74920654 100
          632.98052979 798.42852783 100 688.28234863 794.16314697 100
          889.75933838 703.02770996 100 745.17633057 598.18969727 100
          765.10595703 648.51977539 100 633.67877197 874.421875 100
          895.91937256 642.9251709 100 507.47637939 638.10742188 100
          703.40014648 585.12103271 100 649.86639404 898.2769165 100
          622.62835693 561.72174072 100 631.8046875 826.01806641 100
          642.53619385 538.85241699 100 567.84527588 578.98736572 100
          894.69281006 613.31561279 100 619.05285645 596.89849854 100
          881.8894043 482.77941895 100 554.75396729 602.89086914 100
          800.62994385 655.19055176 100 673.7835083 546.08654785 100
          897.12835693 454.19876099 100 870.3260498 608.21661377 100
          676.73284912 579.42938232 100 849.3626709 650.050354 100
          598.70635986 877.17193604 100 854.45983887 684.76763916 100
          892.85516357 672.06561279 100 539.63983154 575.77740479 100
          843.64904785 471.81915283 100 619.03656006 901.06628418 100
          591.33813477 848.94830322 100 647.36181641 570.98065186 100
          827.7913208 662.11962891 100 814.08612061 684.76544189 100
          617.57904053 848.6083374 100 871.8034668 633.00030518 100
          866.53894043 444.23968506 100 573.10333252 863.9385376 100
          872.18988037 657.6026001 100 607.519104 924.30749512 100
          611.76586914 878.23480225 2.1049600286e-29 892.45214844 968.96417236 3.2410301421e-29
          574.76397705 830.8482666 1.9475599432e-29 589.76885986 543.36547852 1.945250031e-29
          971.97229004 555.33544922 3.4681400141e-29 631.93444824 973.78375244 2.2057899843e-29
          804.65753174 764.73687744 2.8477600622e-29 810.07904053 944.07617188 2.9080001416e-29
          972.88598633 706.65637207 3.5043998582e-29 752.2935791 842.97198486 2.6563400795e-29
          751.23846436 809.69873047 2.6449698706e-29 739.45593262 613.78009033 2.5558498698e-29
          971.82275391 584.84692383 3.4739099798e-29 855.97393799 570.23858643 3.0099399145e-29
          733.77044678 675.94824219 2.5466400126e-29 725.87414551 709.99731445 2.5225699509e-29
          904.61077881 570.57830811 3.2034799248e-29 822.88476562 533.51287842 2.8703999706e-29
          617.87774658 596.82305908 2.0685799642e-29 753.14819336 542.76159668 2.5950001136e-29
          646.37689209 597.70513916 2.182140016e-29 790.17559814 538.91241455 2.741449933e-29
          789.05236816 650.07678223 2.7609599043e-29 856.39862061 886.90362549 3.0799200837e-29
          863.14160156 943.97479248 3.1190498644e-29 912.47741699 890.9342041 3.3038500648e-29
          805.79412842 880.47662354 2.8772400312e-29 723.7409668 973.17498779 2.5708399243e-29
          541.79223633 973.94421387 1.8472600696e-29 571.82775879 973.68139648 1.9666800641e-29
          601.87591553 973.50946045 2.0861700241e-29 661.9944458 973.98339844 2.325400014e-29
          692.31903076 973.92047119 2.4460100226e-29 757.99542236 970.08892822 2.7064299062e-29
          807.96728516 915.21051025 2.8933699954e-29 866.15765381 975.03930664 3.1377401117e-29
          954.19506836 424.8598938 3.3692898541e-29 975.55963135 470.72824097 3.4641599595e-29
          973.35009766 503.19863892 3.4623799789e-29 974.02166748 645.59197998 3.4957500254e-29
          938.73150635 567.73370361 3.3385899289e-29 968.23083496 888.60809326 3.5251300867e-29
          893.3125 689.71075439 3.1842299541e-29 973.64526367 615.42321777 3.4877498929e-29
          888.4899292 722.19189453 3.1720499518e-29 974.08300781 796.19329834 3.5284800011e-29
          974.05950928 825.60900879 3.5347299447e-29 631.44976807 820.92736816 2.1708999578e-29
          682.73101807 764.17993164 2.362650057e-29 745.89123535 772.5703125 2.6156900178e-29
          911.41986084 509.35903931 3.2173598612e-29 852.19512939 531.17132568 2.9864799813e-29
          908.36767578 478.09811401 3.1984800301e-29 797.27996826 590.29187012 2.7807900614e-29
          784.88037109 712.45306396 2.7578200366e-29 973.44793701 855.38916016 3.5387099993e-29
          560.59924316 596.28552246 1.8406300558e-29 697.00549316 533.71478271 2.369729956e-29
          700.84613037 504.41830444 2.3786900442e-29 897.41070557 657.92932129 3.1936700201e-29
          883.29455566 754.14703369 3.1582699231e-29 971.63549805 737.81585693 3.5061500471e-29
          972.3314209 767.92340088 3.5154098581e-29 973.48504639 676.20019531 3.5002199884e-29
          832.48840332 866.77557373 2.9804698762e-29 792.08380127 619.80584717 2.7664900316e-29
          680.1831665 601.70629883 2.3174699974e-29 941.7074585 488.69476318 3.3333799875e-29
          743.80218506 579.9788208 2.5658499601e-29 726.48382568 826.81536865 2.5501900432e-29
          736.65264893 644.96606445 2.55141993e-29 708.38122559 687.48803711 2.4481399807e-29
          470.55462646 762.09680176 1.5182099733e-29 632.12109375 623.39056396 2.1309700134e-29
          946.59368896 600.91827393 3.3770200554e-29 602.68969727 825.87634277 2.0575699644e-29
          619.27355957 544.03948975 2.0627499637e-29 676.36517334 948.12213135 2.3769899596e-29
          692.09405518 710.39044189 2.3882900526e-29 948.75872803 630.63128662 3.3920399016e-29
          865.51086426 702.41900635 3.0763799837e-29 677.13916016 484.92642212 2.2801799312e-29
          654.29364014 763.61529541 2.2494100406e-29 829.03668213 579.23632812 2.9047299728e-29
          669.13244629 517.61071777 2.2553799721e-29 786.98730469 681.24462891 2.7594700169e-29
          948.8572998 840.93731689 3.4377801359e-29 542.1315918 624.19146729 1.7731900076e-29
          647.73730469 544.56170654 2.1760900381e-29 789.74871826 487.89852905 2.7287598602e-29