<?xml version="1.0"?>
<VTKFile type="UnstructuredGrid" version="0.1" byte_order="LittleEndian" header_type="UInt32" compressor="vtkZLibDataCompressor">
  <UnstructuredGrid>
    <Piece NumberOfPoints="1331" NumberOfCells="1000">
      <PointData>
      </PointData>
      <CellData>
        <DataArray type="Float64" Name="Partition" format="ascii" RangeMin="0" RangeMax="0">
          0 0 0 0 0 0
          0 0 0 0 0 0
          0 0 0 0 0 0
          0 0 0 0 0 0
          0 0 0 0 0 0
          0 0 0 0 0 0
          0 0 0 0 0 0
          0 0 0 0 0 0
          0 0 0 0 0 0
          0 0 0 0 0 0
          0 0 0 0 0 0
          0 0 0 0 0 0
          0 0 0 0 0 0
          0 0 0 0 0 0
          0 0 0 0 0 0
          0 0 0 0 0 0
          0 0 0 0 0 0
          0 0 0 0 0 0
          0 0 0 0 0 0
          0 0 0 0 0 0
          0 0 0 0 0 0
          0 0 0 0 0 0
          0 0 0 0 0 0
          0 0 0 0 0 0
          0 0 0 0 0 0
          0 0 0 0 0 0
          0 0 0 0 0 0
          0 0 0 0 0 0
          0 0 0 0 0 0
          0 0 0 0 0 0
          0 0 0 0 0 0
          0 0 0 0 0 0
          0 0 0 0 0 0
          0 0 0 0 0 0
          0 0 0 0 0 0
          0 0 0 0 0 0
          0 0 0 0 0 0
          0 0 0 0 0 0
          0 0 0 0 0 0
          0 0 0 0 0 0
          0 0 0 0 0 0
          0 0 0 0 0 0
          0 0 0 0 0 0
          0 0 0 0 0 0
          0 0 0 0 0 0
          0 0 0 0 0 0
          0 0 0 0 0 0
          0 0 0 0 0 0
          0 0 0 0 0 0
          0 0 0 0 0 0
          0 0 0 0 0 0
          0 0 0 0 0 0
          0 0 0 0 0 0
          0 0 0 0 0 0
          0 0 0 0 0 0
          0 0 0 0 0 0
          0 0 0 0 0 0
          0 0 0 0 0 0
          0 0 0 0 0 0
          0 0 0 0 0 0
          0 0 0 0 0 0
          0 0 0 0 0 0
          0 0 0 0 0 0
          0 0 0 0 0 0
          0 0 0 0 0 0
          0 0 0 0 0 0
          0 0 0 0 0 0
          0 0 0 0 0 0
          0 0 0 0 0 0
          0 0 0 0 0 0
          0 0 0 0 0 0
          0 0 0 0 0 0
          0 0 0 0 0 0
          0 0 0 0 0 0
          0 0 0 0 0 0
          0 0 0 0 0 0
          0 0 0 0 0 0
          0 0 0 0 0 0
          0 0 0 0 0 0
          0 0 0 0 0 0
          0 0 0 0 0 0
          0 0 0 0 0 0
          0 0 0 0 0 0
          0 0 0 0 0 0
          0 0 0 0 0 0
          0 0 0 0 0 0
          0 0 0 0 0 0
          0 0 0 0 0 0
          0 0 0 0 0 0
          0 0 0 0 0 0
          0 0 0 0 0 0
          0 0 0 0 0 0
          0 0 0 0 0 0
          0 0 0 0 0 0
          0 0 0 0 0 0
          0 0 0 0 0 0
          0 0 0 0 0 0
          0 0 0 0 0 0
          0 0 0 0 0 0
          0 0 0 0 0 0
          0 0 0 0 0 0
          0 0 0 0 0 0
          0 0 0 0 0 0
          0 0 0 0 0 0
          0 0 0 0 0 0
          0 0 0 0 0 0
          0 0 0 0 0 0
          0 0 0 0 0 0
          0 0 0 0 0 0
          0 0 0 0 0 0
          0 0 0 0 0 0
          0 0 0 0 0 0
          0 0 0 0 0 0
          0 0 0 0 0 0
          0 0 0 0 0 0
          0 0 0 0 0 0
          0 0 0 0 0 0
          0 0 0 0 0 0
          0 0 0 0 0 0
          0 0 0 0 0 0
          0 0 0 0 0 0
          0 0 0 0 0 0
          0 0 0 0 0 0
          0 0 0 0 0 0
          0 0 0 0 0 0
          0 0 0 0 0 0
          0 0 0 0 0 0
          0 0 0 0 0 0
          0 0 0 0 0 0
          0 0 0 0 0 0
          0 0 0 0 0 0
          0 0 0 0 0 0
          0 0 0 0 0 0
          0 0 0 0 0 0
          0 0 0 0 0 0
          0 0 0 0 0 0
          0 0 0 0 0 0
          0 0 0 0 0 0
          0 0 0 0 0 0
          0 0 0 0 0 0
          0 0 0 0 0 0
          0 0 0 0 0 0
          0 0 0 0 0 0
          0 0 0 0 0 0
          0 0 0 0 0 0
          0 0 0 0 0 0
          0 0 0 0 0 0
          0 0 0 0 0 0
          0 0 0 0 0 0
          0 0 0 0 0 0
          0 0 0 0 0 0
          0 0 0 0 0 0
          0 0 0 0 0 0
          0 0 0 0 0 0
          0 0 0 0 0 0
          0 0 0 0 0 0
          0 0 0 0 0 0
          0 0 0 0 0 0
          0 0 0 0 0 0
          0 0 0 0 0 0
          0 0 0 0 0 0
          0 0 0 0 0 0
          0 0 0 0 0 0
          0 0 0 0 0 0
          0 0 0 0 0 0
          0 0 0 0 0 0
          0 0 0 0
        </DataArray>
        <DataArray type="Float64" Name="globalIndex" format="ascii" RangeMin="0" RangeMax="999">
          0 1 2 3 4 5
          6 7 8 9 10 11
          12 13 14 15 16 17
          18 19 20 21 22 23
          24 25 26 27 28 29
          30 31 32 33 34 35
          36 37 38 39 40 41
          42 43 44 45 46 47
          48 49 50 51 52 53
          54 55 56 57 58 59
          60 61 62 63 64 65
          66 67 68 69 70 71
          72 73 74 75 76 77
          78 79 80 81 82 83
          84 85 86 87 88 89
          90 91 92 93 94 95
          96 97 98 99 100 101
          102 103 104 105 106 107
          108 109 110 111 112 113
          114 115 116 117 118 119
          120 121 122 123 124 125
          126 127 128 129 130 131
          132 133 134 135 136 137
          138 139 140 141 142 143
          144 145 146 147 148 149
          150 151 152 153 154 155
          156 157 158 159 160 161
          162 163 164 165 166 167
          168 169 170 171 172 173
          174 175 176 177 178 179
          180 181 182 183 184 185
          186 187 188 189 190 191
          192 193 194 195 196 197
          198 199 200 201 202 203
          204 205 206 207 208 209
          210 211 212 213 214 215
          216 217 218 219 220 221
          222 223 224 225 226 227
          228 229 230 231 232 233
          234 235 236 237 238 239
          240 241 242 243 244 245
          246 247 248 249 250 251
          252 253 254 255 256 257
          258 259 260 261 262 263
          264 265 266 267 268 269
          270 271 272 273 274 275
          276 277 278 279 280 281
          282 283 284 285 286 287
          288 289 290 291 292 293
          294 295 296 297 298 299
          300 301 302 303 304 305
          306 307 308 309 310 311
          312 313 314 315 316 317
          318 319 320 321 322 323
          324 325 326 327 328 329
          330 331 332 333 334 335
          336 337 338 339 340 341
          342 343 344 345 346 347
          348 349 350 351 352 353
          354 355 356 357 358 359
          360 361 362 363 364 365
          366 367 368 369 370 371
          372 373 374 375 376 377
          378 379 380 381 382 383
          384 385 386 387 388 389
          390 391 392 393 394 395
          396 397 398 399 400 401
          402 403 404 405 406 407
          408 409 410 411 412 413
          414 415 416 417 418 419
          420 421 422 423 424 425
          426 427 428 429 430 431
          432 433 434 435 436 437
          438 439 440 441 442 443
          444 445 446 447 448 449
          450 451 452 453 454 455
          456 457 458 459 460 461
          462 463 464 465 466 467
          468 469 470 471 472 473
          474 475 476 477 478 479
          480 481 482 483 484 485
          486 487 488 489 490 491
          492 493 494 495 496 497
          498 499 500 501 502 503
          504 505 506 507 508 509
          510 511 512 513 514 515
          516 517 518 519 520 521
          522 523 524 525 526 527
          528 529 530 531 532 533
          534 535 536 537 538 539
          540 541 542 543 544 545
          546 547 548 549 550 551
          552 553 554 555 556 557
          558 559 560 561 562 563
          564 565 566 567 568 569
          570 571 572 573 574 575
          576 577 578 579 580 581
          582 583 584 585 586 587
          588 589 590 591 592 593
          594 595 596 597 598 599
          600 601 602 603 604 605
          606 607 608 609 610 611
          612 613 614 615 616 617
          618 619 620 621 622 623
          624 625 626 627 628 629
          630 631 632 633 634 635
          636 637 638 639 640 641
          642 643 644 645 646 647
          648 649 650 651 652 653
          654 655 656 657 658 659
          660 661 662 663 664 665
          666 667 668 669 670 671
          672 673 674 675 676 677
          678 679 680 681 682 683
          684 685 686 687 688 689
          690 691 692 693 694 695
          696 697 698 699 700 701
          702 703 704 705 706 707
          708 709 710 711 712 713
          714 715 716 717 718 719
          720 721 722 723 724 725
          726 727 728 729 730 731
          732 733 734 735 736 737
          738 739 740 741 742 743
          744 745 746 747 748 749
          750 751 752 753 754 755
          756 757 758 759 760 761
          762 763 764 765 766 767
          768 769 770 771 772 773
          774 775 776 777 778 779
          780 781 782 783 784 785
          786 787 788 789 790 791
          792 793 794 795 796 797
          798 799 800 801 802 803
          804 805 806 807 808 809
          810 811 812 813 814 815
          816 817 818 819 820 821
          822 823 824 825 826 827
          828 829 830 831 832 833
          834 835 836 837 838 839
          840 841 842 843 844 845
          846 847 848 849 850 851
          852 853 854 855 856 857
          858 859 860 861 862 863
          864 865 866 867 868 869
          870 871 872 873 874 875
          876 877 878 879 880 881
          882 883 884 885 886 887
          888 889 890 891 892 893
          894 895 896 897 898 899
          900 901 902 903 904 905
          906 907 908 909 910 911
          912 913 914 915 916 917
          918 919 920 921 922 923
          924 925 926 927 928 929
          930 931 932 933 934 935
          936 937 938 939 940 941
          942 943 944 945 946 947
          948 949 950 951 952 953
          954 955 956 957 958 959
          960 961 962 963 964 965
          966 967 968 969 970 971
          972 973 974 975 976 977
          978 979 980 981 982 983
          984 985 986 987 988 989
          990 991 992 993 994 995
          996 997 998 999
        </DataArray>
      </CellData>
      <Points>
        <DataArray type="Float32" Name="Points" NumberOfComponents="3" format="ascii" RangeMin="0" RangeMax="17.320508076">
          10 0 9 6 10 10
          5 10 10 0 0 0
          10 0 0 10 10 0
          0 10 0 0 0 10
          4 10 10 10 0 10
          10 10 10 0 10 10
          1 0 0 10 1 0
          2 0 0 3 0 0
          10 7 0 10 8 0
          4 0 0 5 0 0
          6 0 0 7 0 0
          8 0 0 9 0 0
          2 10 0 1 10 0
          0 9 0 10 2 0
          10 3 0 10 4 0
          10 5 0 10 6 0
          4 0 10 5 0 10
          6 0 10 7 0 10
          8 0 10 10 9 0
          9 10 0 8 10 0
          7 10 0 6 10 0
          5 10 0 4 10 0
          3 10 0 3 10 10
          2 10 10 1 10 10
          0 9 10 0 8 10
          0 7 10 0 6 10
          0 8 0 0 7 0
          0 6 0 0 5 0
          0 4 0 0 3 0
          0 2 0 0 1 0
          1 0 10 2 0 10
          3 0 10 10 10 1
          10 10 2 10 10 3
          10 10 4 10 10 5
          10 10 6 10 10 7
          10 10 8 10 10 9
          9 0 10 10 1 10
          10 2 10 10 3 10
          10 4 10 10 5 10
          10 6 10 10 7 10
          10 8 10 10 9 10
          9 10 10 8 10 10
          7 10 10 5 2 0
          6 2 0 7 2 0
          8 2 0 9 2 0
          1 3 0 2 3 0
          3 3 0 4 3 0
          5 3 0 6 3 0
          7 3 0 8 3 0
          0 5 10 0 4 10
          0 3 10 0 2 10
          0 1 10 0 0 1
          0 0 2 0 0 3
          0 0 4 0 0 5
          0 0 6 0 0 7
          0 0 8 0 0 9
          10 0 1 10 0 2
          10 0 3 10 0 4
          10 0 5 10 0 6
          10 0 7 10 0 8
          3 1 10 4 1 10
          5 1 10 6 1 10
          7 1 10 8 1 10
          9 1 10 1 2 10
          2 2 10 3 2 10
          4 2 10 5 2 10
          6 2 10 7 2 10
          8 2 10 9 2 10
          1 3 10 2 3 10
          3 3 10 4 3 10
          0 10 1 0 10 2
          0 10 3 0 10 4
          0 10 5 0 10 6
          0 10 7 0 10 8
          0 10 9 1 1 0
          2 1 0 3 1 0
          4 1 0 5 1 0
          6 1 0 7 1 0
          8 1 0 9 1 0
          1 2 0 2 2 0
          3 2 0 4 2 0
          7 7 10 8 7 10
          9 7 10 1 8 10
          2 8 10 3 8 10
          4 8 10 5 8 10
          6 8 10 7 8 10
          8 8 10 9 8 10
          1 9 10 2 9 10
          3 9 10 4 9 10
          5 9 10 6 9 10
          7 9 10 8 9 10
          9 9 10 1 0 1
          2 0 1 3 0 1
          4 0 1 5 0 1
          9 3 0 1 4 0
          2 4 0 3 4 0
          4 4 0 5 4 0
          6 4 0 7 4 0
          8 4 0 9 4 0
          1 5 0 2 5 0
          3 5 0 4 5 0
          5 5 0 6 5 0
          7 5 0 8 5 0
          9 5 0 1 6 0
          2 6 0 3 6 0
          4 6 0 5 6 0
          6 6 0 7 6 0
          8 6 0 9 6 0
          1 7 0 2 7 0
          3 7 0 4 7 0
          5 7 0 6 7 0
          7 7 0 8 7 0
          9 7 0 1 8 0
          2 8 0 3 8 0
          4 8 0 5 8 0
          6 8 0 7 8 0
          8 8 0 9 8 0
          1 9 0 2 9 0
          3 9 0 4 9 0
          5 9 0 6 9 0
          7 9 0 8 9 0
          9 9 0 1 1 10
          2 1 10 6 10 6
          7 10 6 8 10 6
          9 10 6 1 10 7
          2 10 7 3 10 7
          4 10 7 5 10 7
          6 10 7 7 10 7
          8 10 7 9 10 7
          1 10 8 2 10 8
          3 10 8 4 10 8
          5 10 8 6 10 8
          7 10 8 8 10 8
          9 10 8 1 10 9
          2 10 9 3 10 9
          4 10 9 5 10 9
          6 10 9 7 10 9
          8 10 9 9 10 9
          0 1 1 0 2 1
          0 3 1 0 4 1
          0 5 1 0 6 1
          0 7 1 0 8 1
          0 9 1 0 1 2
          5 3 10 6 3 10
          7 3 10 8 3 10
          9 3 10 1 4 10
          2 4 10 3 4 10
          4 4 10 5 4 10
          6 4 10 7 4 10
          8 4 10 9 4 10
          1 5 10 2 5 10
          3 5 10 4 5 10
          5 5 10 6 5 10
          7 5 10 8 5 10
          9 5 10 1 6 10
          2 6 10 3 6 10
          4 6 10 5 6 10
          6 6 10 7 6 10
          8 6 10 9 6 10
          1 7 10 2 7 10
          3 7 10 4 7 10
          5 7 10 6 7 10
          9 0 2 0 2 9
          0 3 9 0 4 9
          0 5 9 0 6 9
          0 7 9 0 8 9
          0 9 9 10 1 1
          10 2 1 10 3 1
          10 4 1 10 5 1
          10 6 1 10 7 1
          10 8 1 10 9 1
          10 1 2 10 2 2
          10 3 2 10 4 2
          10 5 2 10 6 2
          10 7 2 10 8 2
          10 9 2 10 1 3
          10 2 3 10 3 3
          10 4 3 10 5 3
          10 6 3 10 7 3
          10 8 3 10 9 3
          10 1 4 10 2 4
          10 3 4 10 4 4
          10 5 4 10 6 4
          10 7 4 10 8 4
          10 9 4 10 1 5
          10 2 5 10 3 5
          10 4 5 10 5 5
          10 6 5 10 7 5
          6 0 1 7 0 1
          8 0 1 9 0 1
          1 0 2 2 0 2
          3 0 2 4 0 2
          5 0 2 6 0 2
          7 0 2 8 0 2
          1 0 3 2 0 3
          3 0 3 4 0 3
          5 0 3 6 0 3
          7 0 3 8 0 3
          9 0 3 1 0 4
          2 0 4 3 0 4
          4 0 4 5 0 4
          6 0 4 7 0 4
          8 0 4 9 0 4
          1 0 5 2 0 5
          3 0 5 4 0 5
          5 0 5 6 0 5
          7 0 5 8 0 5
          9 0 5 1 0 6
          2 0 6 3 0 6
          4 0 6 5 0 6
          6 0 6 7 0 6
          8 0 6 9 0 6
          1 0 7 2 0 7
          3 0 7 4 0 7
          5 0 7 6 0 7
          7 0 7 8 0 7
          9 0 7 1 0 8
          2 0 8 3 0 8
          4 0 8 5 0 8
          6 0 8 7 0 8
          8 0 8 9 0 8
          1 0 9 2 0 9
          3 0 9 4 0 9
          5 0 9 6 0 9
          7 0 9 8 0 9
          9 0 9 1 10 1
          2 10 1 3 10 1
          4 10 1 5 10 1
          6 10 1 7 10 1
          8 10 1 9 10 1
          1 10 2 2 10 2
          3 10 2 4 10 2
          5 10 2 6 10 2
          7 10 2 8 10 2
          9 10 2 1 10 3
          2 10 3 3 10 3
          4 10 3 5 10 3
          6 10 3 7 10 3
          8 10 3 9 10 3
          1 10 4 2 10 4
          3 10 4 4 10 4
          5 10 4 6 10 4
          7 10 4 8 10 4
          9 10 4 1 10 5
          2 10 5 3 10 5
          4 10 5 5 10 5
          6 10 5 7 10 5
          8 10 5 9 10 5
          1 10 6 2 10 6
          3 10 6 4 10 6
          5 10 6 6 7 3
          7 7 3 8 7 3
          9 7 3 1 8 3
          2 8 3 3 8 3
          4 8 3 5 8 3
          6 8 3 7 8 3
          8 8 3 9 8 3
          1 9 3 2 9 3
          3 9 3 4 9 3
          5 9 3 6 9 3
          7 9 3 8 9 3
          9 9 3 1 1 4
          2 1 4 3 1 4
          4 1 4 5 1 4
          6 1 4 7 1 4
          8 1 4 9 1 4
          1 2 4 2 2 4
          3 2 4 4 2 4
          5 2 4 6 2 4
          7 2 4 8 2 4
          9 2 4 1 3 4
          2 3 4 3 3 4
          4 3 4 5 3 4
          6 3 4 7 3 4
          8 3 4 9 3 4
          1 4 4 2 4 4
          3 4 4 4 4 4
          5 4 4 6 4 4
          7 4 4 8 4 4
          9 4 4 1 5 4
          2 5 4 3 5 4
          4 5 4 5 5 4
          6 5 4 7 5 4
          8 5 4 9 5 4
          1 6 4 2 6 4
          3 6 4 4 6 4
          5 6 4 6 6 4
          7 6 4 8 6 4
          9 6 4 1 7 4
          2 7 4 3 7 4
          4 7 4 5 7 4
          6 7 4 0 2 2
          0 3 2 0 4 2
          0 5 2 0 6 2
          0 7 2 0 8 2
          0 9 2 0 1 3
          0 2 3 0 3 3
          0 4 3 0 5 3
          0 6 3 0 7 3
          0 8 3 0 9 3
          0 1 4 0 2 4
          0 3 4 0 4 4
          0 5 4 0 6 4
          0 7 4 0 8 4
          0 9 4 0 1 5
          0 2 5 0 3 5
          0 4 5 0 5 5
          0 6 5 0 7 5
          0 8 5 0 9 5
          0 1 6 0 2 6
          0 3 6 0 4 6
          0 5 6 0 6 6
          0 7 6 0 8 6
          0 9 6 0 1 7
          0 2 7 0 3 7
          0 4 7 0 5 7
          0 6 7 0 7 7
          0 8 7 0 9 7
          0 1 8 0 2 8
          0 3 8 0 4 8
          0 5 8 0 6 8
          0 7 8 0 8 8
          0 9 8 0 1 9
          1 3 6 2 3 6
          3 3 6 4 3 6
          5 3 6 6 3 6
          7 3 6 8 3 6
          9 3 6 1 4 6
          2 4 6 3 4 6
          4 4 6 5 4 6
          6 4 6 7 4 6
          8 4 6 9 4 6
          1 5 6 2 5 6
          3 5 6 4 5 6
          5 5 6 6 5 6
          7 5 6 8 5 6
          9 5 6 1 6 6
          2 6 6 3 6 6
          4 6 6 5 6 6
          6 6 6 7 6 6
          8 6 6 9 6 6
          1 7 6 2 7 6
          3 7 6 4 7 6
          5 7 6 6 7 6
          7 7 6 8 7 6
          9 7 6 1 8 6
          2 8 6 3 8 6
          4 8 6 5 8 6
          6 8 6 7 8 6
          8 8 6 9 8 6
          1 9 6 2 9 6
          3 9 6 4 9 6
          5 9 6 6 9 6
          7 9 6 8 9 6
          9 9 6 1 1 7
          2 1 7 3 1 7
          4 1 7 5 1 7
          6 1 7 7 1 7
          8 1 7 9 1 7
          1 2 7 2 2 7
          3 2 7 4 2 7
          5 2 7 6 2 7
          7 2 7 8 2 7
          9 2 7 1 3 7
          2 3 7 3 3 7
          4 3 7 5 3 7
          6 3 7 7 3 7
          8 3 7 9 3 7
          1 4 7 2 4 7
          3 4 7 4 4 7
          5 4 7 6 4 7
          7 4 7 8 4 7
          9 4 7 1 5 7
          2 5 7 3 5 7
          10 8 5 10 9 5
          10 1 6 10 2 6
          10 3 6 10 4 6
          10 5 6 10 6 6
          10 7 6 10 8 6
          10 9 6 10 1 7
          10 2 7 10 3 7
          10 4 7 10 5 7
          10 6 7 10 7 7
          10 8 7 10 9 7
          10 1 8 10 2 8
          10 3 8 10 4 8
          10 5 8 10 6 8
          10 7 8 10 8 8
          10 9 8 10 1 9
          10 2 9 10 3 9
          10 4 9 10 5 9
          10 6 9 10 7 9
          10 8 9 10 9 9
          1 1 1 2 1 1
          3 1 1 4 1 1
          5 1 1 6 1 1
          7 1 1 8 1 1
          9 1 1 1 2 1
          2 2 1 3 2 1
          4 2 1 5 2 1
          6 2 1 7 2 1
          8 2 1 9 2 1
          1 3 1 2 3 1
          3 3 1 4 3 1
          5 3 1 6 3 1
          7 3 1 8 3 1
          9 3 1 1 4 1
          2 4 1 3 4 1
          4 4 1 5 4 1
          6 4 1 7 4 1
          8 4 1 9 4 1
          1 5 1 2 5 1
          3 5 1 4 5 1
          5 5 1 6 5 1
          7 5 1 8 5 1
          9 5 1 1 6 1
          2 6 1 3 6 1
          4 6 1 5 6 1
          6 6 1 7 6 1
          8 6 1 9 6 1
          1 7 1 2 7 1
          3 7 1 4 7 1
          5 7 1 6 7 1
          7 7 1 8 7 1
          9 7 1 1 8 1
          2 8 1 3 8 1
          4 8 1 5 8 1
          6 8 1 7 8 1
          8 8 1 9 8 1
          1 9 1 2 9 1
          3 9 1 4 9 1
          5 9 1 6 9 1
          7 9 1 8 9 1
          9 9 1 1 1 2
          2 1 2 3 1 2
          4 1 2 5 1 2
          6 1 2 7 1 2
          8 1 2 9 1 2
          1 2 2 2 2 2
          3 2 2 4 2 2
          5 2 2 6 2 2
          7 2 2 8 2 2
          9 2 2 1 3 2
          2 3 2 3 3 2
          4 3 2 5 3 2
          6 3 2 7 3 2
          8 3 2 9 3 2
          1 4 2 2 4 2
          3 4 2 4 4 2
          5 4 2 6 4 2
          7 4 2 8 4 2
          9 4 2 1 5 2
          2 5 2 3 5 2
          4 5 2 5 5 2
          6 5 2 7 5 2
          8 5 2 9 5 2
          1 6 2 2 6 2
          3 6 2 4 6 2
          5 6 2 6 6 2
          7 6 2 8 6 2
          9 6 2 1 7 2
          2 7 2 3 7 2
          4 7 2 5 7 2
          6 7 2 7 7 2
          8 7 2 9 7 2
          1 8 2 2 8 2
          3 8 2 4 8 2
          5 8 2 6 8 2
          7 8 2 8 8 2
          9 8 2 1 9 2
          2 9 2 3 9 2
          4 9 2 5 9 2
          6 9 2 7 9 2
          8 9 2 9 9 2
          1 1 3 2 1 3
          3 1 3 4 1 3
          5 1 3 6 1 3
          7 1 3 8 1 3
          9 1 3 1 2 3
          2 2 3 3 2 3
          4 2 3 5 2 3
          6 2 3 7 2 3
          8 2 3 9 2 3
          1 3 3 2 3 3
          3 3 3 4 3 3
          5 3 3 6 3 3
          7 3 3 8 3 3
          9 3 3 1 4 3
          2 4 3 3 4 3
          4 4 3 5 4 3
          6 4 3 7 4 3
          8 4 3 9 4 3
          1 5 3 2 5 3
          3 5 3 4 5 3
          5 5 3 6 5 3
          7 5 3 8 5 3
          9 5 3 1 6 3
          2 6 3 3 6 3
          4 6 3 5 6 3
          6 6 3 7 6 3
          8 6 3 9 6 3
          1 7 3 2 7 3
          3 7 3 4 7 3
          5 7 3 7 7 4
          8 7 4 9 7 4
          1 8 4 2 8 4
          3 8 4 4 8 4
          5 8 4 6 8 4
          7 8 4 8 8 4
          9 8 4 1 9 4
          2 9 4 3 9 4
          4 9 4 5 9 4
          6 9 4 7 9 4
          8 9 4 9 9 4
          1 1 5 2 1 5
          3 1 5 4 1 5
          5 1 5 6 1 5
          7 1 5 8 1 5
          9 1 5 1 2 5
          2 2 5 3 2 5
          4 2 5 5 2 5
          6 2 5 7 2 5
          8 2 5 9 2 5
          1 3 5 2 3 5
          3 3 5 4 3 5
          5 3 5 6 3 5
          7 3 5 8 3 5
          9 3 5 1 4 5
          2 4 5 3 4 5
          4 4 5 5 4 5
          6 4 5 7 4 5
          8 4 5 9 4 5
          1 5 5 2 5 5
          3 5 5 4 5 5
          5 5 5 6 5 5
          7 5 5 8 5 5
          9 5 5 1 6 5
          2 6 5 3 6 5
          4 6 5 5 6 5
          6 6 5 7 6 5
          8 6 5 9 6 5
          1 7 5 2 7 5
          3 7 5 4 7 5
          5 7 5 6 7 5
          7 7 5 8 7 5
          9 7 5 1 8 5
          2 8 5 3 8 5
          4 8 5 5 8 5
          6 8 5 7 8 5
          8 8 5 9 8 5
          1 9 5 2 9 5
          3 9 5 4 9 5
          5 9 5 6 9 5
          7 9 5 8 9 5
          9 9 5 1 1 6
          2 1 6 3 1 6
          4 1 6 5 1 6
          6 1 6 7 1 6
          8 1 6 9 1 6
          1 2 6 2 2 6
          3 2 6 4 2 6
          5 2 6 6 2 6
          7 2 6 8 2 6
          9 2 6 4 5 7
          5 5 7 6 5 7
          7 5 7 8 5 7
          9 5 7 1 6 7
          2 6 7 3 6 7
          4 6 7 5 6 7
          6 6 7 7 6 7
          8 6 7 9 6 7
          1 7 7 2 7 7
          3 7 7 4 7 7
          5 7 7 6 7 7
          7 7 7 8 7 7
          9 7 7 1 8 7
          2 8 7 3 8 7
          4 8 7 5 8 7
          6 8 7 7 8 7
          8 8 7 9 8 7
          1 9 7 2 9 7
          3 9 7 4 9 7
          5 9 7 6 9 7
          7 9 7 8 9 7
          9 9 7 1 1 8
          2 1 8 3 1 8
          4 1 8 5 1 8
          6 1 8 7 1 8
          8 1 8 9 1 8
          1 2 8 2 2 8
          3 2 8 4 2 8
          5 2 8 6 2 8
          7 2 8 8 2 8
          9 2 8 1 3 8
          2 3 8 3 3 8
          4 3 8 5 3 8
          6 3 8 7 3 8
          8 3 8 9 3 8
          1 4 8 2 4 8
          3 4 8 4 4 8
          5 4 8 6 4 8
          7 4 8 8 4 8
          9 4 8 1 5 8
          2 5 8 3 5 8
          4 5 8 5 5 8
          6 5 8 7 5 8
          8 5 8 9 5 8
          1 6 8 2 6 8
          3 6 8 4 6 8
          5 6 8 6 6 8
          7 6 8 8 6 8
          9 6 8 1 7 8
          2 7 8 3 7 8
          4 7 8 5 7 8
          6 7 8 7 7 8
          8 7 8 9 7 8
          1 8 8 2 8 8
          3 8 8 4 8 8
          5 8 8 6 8 8
          7 8 8 8 8 8
          9 8 8 1 9 8
          2 9 8 3 9 8
          4 9 8 5 9 8
          6 9 8 7 9 8
          8 9 8 9 9 8
          1 1 9 2 1 9
          3 1 9 4 1 9
          5 1 9 6 1 9
          7 1 9 8 1 9
          9 1 9 1 2 9
          2 2 9 3 2 9
          4 2 9 5 2 9
          6 2 9 7 2 9
          8 2 9 9 2 9
          1 3 9 2 3 9
          3 3 9 4 3 9
          5 3 9 6 3 9
          7 3 9 8 3 9
          9 3 9 1 4 9
          2 4 9 3 4 9
          4 4 9 5 4 9
          6 4 9 7 4 9
          8 4 9 9 4 9
          1 5 9 2 5 9
          3 5 9 4 5 9
          5 5 9 6 5 9
          7 5 9 8 5 9
          9 5 9 1 6 9
          2 6 9 3 6 9
          4 6 9 5 6 9
          6 6 9 7 6 9
          8 6 9 9 6 9
          1 7 9 2 7 9
          3 7 9 4 7 9
          5 7 9 6 7 9
          7 7 9 8 7 9
          9 7 9 1 8 9
          2 8 9 3 8 9
          4 8 9 5 8 9
          6 8 9 7 8 9
          8 8 9 9 8 9
          1 9 9 2 9 9
          3 9 9 4 9 9
          5 9 9 6 9 9
          7 9 9 8 9 9
          9 9 9
        </DataArray>
      </Points>
      <Cells>
        <DataArray type="Int64" Name="connectivity" format="ascii" RangeMin="0" RangeMax="1330">
          3 12 149 59 103 183
          786 276 12 14 150 149
          183 184 787 786 14 15
          151 150 184 185 788 787
          15 18 152 151 185 186
          789 788 18 19 153 152
          186 187 790 789 19 20
          154 153 187 376 791 790
          20 21 155 154 376 377
          792 791 21 22 156 155
          377 378 793 792 22 23
          157 156 378 379 794 793
          23 4 13 157 379 112
          333 794 59 149 158 58
          276 786 795 277 149 150
          159 158 786 787 796 795
          150 151 160 159 787 788
          797 796 151 152 161 160
          788 789 798 797 152 153
          85 161 789 790 799 798
          153 154 86 85 790 791
          800 799 154 155 87 86
          791 792 801 800 155 156
          88 87 792 793 802 801
          156 157 89 88 793 794
          803 802 157 13 27 89
          794 333 334 803 58 158
          90 57 277 795 804 278
          158 159 91 90 795 796
          805 804 159 160 92 91
          796 797 806 805 160 161
          93 92 797 798 807 806
          161 85 94 93 798 799
          808 807 85 86 95 94
          799 800 809 808 86 87
          96 95 800 801 810 809
          87 88 97 96 801 802
          811 810 88 89 188 97
          802 803 812 811 89 27
          28 188 803 334 335 812
          57 90 189 56 278 804
          813 279 90 91 190 189
          804 805 814 813 91 92
          191 190 805 806 815 814
          92 93 192 191 806 807
          816 815 93 94 193 192
          807 808 817 816 94 95
          194 193 808 809 818 817
          95 96 195 194 809 810
          819 818 96 97 196 195
          810 811 820 819 97 188
          197 196 811 812 821 820
          188 28 29 197 812 335
          336 821 56 189 198 55
          279 813 822 280 189 190
          199 198 813 814 823 822
          190 191 200 199 814 815
          824 823 191 192 201 200
          815 816 825 824 192 193
          202 201 816 817 826 825
          193 194 203 202 817 818
          827 826 194 195 204 203
          818 819 828 827 195 196
          205 204 819 820 829 828
          196 197 206 205 820 821
          830 829 197 29 30 206
          821 336 337 830 55 198
          207 54 280 822 831 281
          198 199 208 207 822 823
          832 831 199 200 209 208
          823 824 833 832 200 201
          210 209 824 825 834 833
          201 202 211 210 825 826
          835 834 202 203 212 211
          826 827 836 835 203 204
          213 212 827 828 837 836
          204 205 214 213 828 829
          838 837 205 206 215 214
          829 830 839 838 206 30
          31 215 830 337 338 839
          54 207 216 53 281 831
          840 282 207 208 217 216
          831 832 841 840 208 209
          218 217 832 833 842 841
          209 210 219 218 833 834
          843 842 210 211 220 219
          834 835 844 843 211 212
          221 220 835 836 845 844
          212 213 222 221 836 837
          846 845 213 214 223 222
          837 838 847 846 214 215
          224 223 838 839 848 847
          215 31 16 224 839 338
          339 848 53 216 225 52
          282 840 849 283 216 217
          226 225 840 841 850 849
          217 218 227 226 841 842
          851 850 218 219 228 227
          842 843 852 851 219 220
          229 228 843 844 853 852
          220 221 230 229 844 845
          854 853 221 222 231 230
          845 846 855 854 222 223
          232 231 846 847 856 855
          223 224 233 232 847 848
          857 856 224 16 17 233
          848 339 340 857 52 225
          234 26 283 849 858 284
          225 226 235 234 849 850
          859 858 226 227 236 235
          850 851 860 859 227 228
          237 236 851 852 861 860
          228 229 238 237 852 853
          862 861 229 230 239 238
          853 854 863 862 230 231
          240 239 854 855 864 863
          231 232 241 240 855 856
          865 864 232 233 242 241
          856 857 866 865 233 17
          37 242 857 340 341 866
          26 234 25 6 284 858
          451 140 234 235 24 25
          858 859 452 451 235 236
          44 24 859 860 453 452
          236 237 43 44 860 861
          454 453 237 238 42 43
          861 862 455 454 238 239
          41 42 862 863 456 455
          239 240 40 41 863 864
          457 456 240 241 39 40
          864 865 458 457 241 242
          38 39 865 866 459 458
          242 37 5 38 866 341
          63 459 103 183 786 276
          104 380 867 285 183 184
          787 786 380 381 868 867
          184 185 788 787 381 382
          869 868 185 186 789 788
          382 383 870 869 186 187
          790 789 383 384 871 870
          187 376 791 790 384 385
          872 871 376 377 792 791
          385 386 873 872 377 378
          793 792 386 387 874 873
          378 379 794 793 387 324
          875 874 379 112 333 794
          324 113 342 875 276 786
          795 277 285 867 876 583
          786 787 796 795 867 868