# vtk DataFile Version 5.1
vtk output
ASCII
DATASET UNSTRUCTURED_GRID
POINTS 64 float
0 0 3
0 0 0
0 3 3
0 3 0
3 0 3
3 0 0
3 3 3
3 3 0
0 0 1
0 0 2
0 1 3
0 2 3
0 3 1
0 3 2
0 1 0
0 2 0
3 0 1
3 0 2
3 1 3
3 2 3
3 3 1
3 3 2
3 1 0
3 2 0
1 0 0
2 0 0
1 0 3
2 0 3
1 3 0
2 3 0
1 3 3
2 3 3
0 1 2
0 1 1
0 2 2
0 2 1
3 1 2
3 1 1
3 2 2
3 2 1
1 0 2
1 0 1
2 0 2
2 0 1
1 3 2
1 3 1
2 3 2
2 3 1
2 1 0
2 2 0
1 1 0
1 2 0
1 1 3
2 1 3
1 2 3
2 2 3
1 1 1
2 1 1
1 2 1
2 2 1
1 1 2
2 1 2
1 2 2
2 2 2
METADATA
INFORMATION 2
NAME L2_NORM_RANGE LOCATION vtkDataArray
DATA 2 0 5.19615 
NAME L2_NORM_FINITE_RANGE LOCATION vtkDataArray
DATA 2 0 5.19615 

CELLS 126 512
OFFSETS vtktypeint64
0 2 4 6 8 10 12 14 16 
18 20 22 24 26 28 30 32 34 
36 38 40 42 44 46 48 50 52 
54 56 58 60 62 64 66 68 70 
72 76 80 84 88 92 96 100 104 
108 112 116 120 124 128 132 136 140 
144 148 152 156 160 164 168 172 176 
180 184 188 192 196 200 204 208 212 
216 220 224 228 232 236 240 244 248 
252 256 260 264 268 272 276 280 284 
288 296 304 312 320 328 336 344 352 
360 368 376 384 392 400 408 416 424 
432 440 448 456 464 472 480 488 496 
504 505 506 507 508 509 510 511 512 

CONNECTIVITY vtktypeint64
1 8 8 9 9 0 0 10 10
11 11 2 3 12 12 13 13 2
1 14 14 15 15 3 5 16 16
17 17 4 4 18 18 19 19 6
7 20 20 21 21 6 5 22 22
23 23 7 1 24 24 25 25 5
0 26 26 27 27 4 3 28 28
29 29 7 2 30 30 31 31 6
0 10 32 9 9 32 33 8 8
33 14 1 10 11 34 32 32 34
35 33 33 35 15 14 11 2 13
34 34 13 12 35 35 12 3 15
4 17 36 18 17 16 37 36 16
5 22 37 18 36 38 19 36 37
39 38 37 22 23 39 19 38 21
6 38 39 20 21 39 23 7 20
0 9 40 26 9 8 41 40 8
1 24 41 26 40 42 27 40 41
43 42 41 24 25 43 27 42 17
4 42 43 16 17 43 25 5 16
2 30 44 13 13 44 45 12 12
45 28 3 30 31 46 44 44 46
47 45 45 47 29 28 31 6 21
46 46 21 20 47 47 20 7 29
5 25 48 22 22 48 49 23 23
49 29 7 25 24 50 48 48 50
51 49 49 51 28 29 24 1 14
50 50 14 15 51 51 15 3 28
0 26 52 10 26 27 53 52 27
4 18 53 10 52 54 11 52 53
55 54 53 18 19 55 11 54 30
2 54 55 31 30 55 19 6 31
33 8 1 14 56 41 24 50 56
41 24 50 57 43 25 48 57 43
25 48 37 16 5 22 35 33 14
15 58 56 50 51 58 56 50 51
59 57 48 49 59 57 48 49 39
37 22 23 12 35 15 3 45 58
51 28 45 58 51 28 47 59 49
29 47 59 49 29 20 39 23 7
32 9 8 33 60 40 41 56 60
40 41 56 61 42 43 57 61 42
43 57 36 17 16 37 34 32 33
35 62 60 56 58 62 60 56 58
63 61 57 59 63 61 57 59 38
36 37 39 13 34 35 12 44 62
58 45 44 62 58 45 46 63 59
47 46 63 59 47 21 38 39 20
10 0 9 32 52 26 40 60 52
26 40 60 53 27 42 61 53 27
42 61 18 4 17 36 11 10 32
34 54 52 60 62 54 52 60 62
55 53 61 63 55 53 61 63 19
18 36 38 2 11 34 13 30 54
62 44 30 54 62 44 31 55 63
46 31 55 63 46 6 19 38 21
0 1 2 3 4 5 6 7
CELL_TYPES 125
3
3
3
3
3
3
3
3
3
3
3
3
3
3
3
3
3
3
3
3
3
3
3
3
3
3
3
3
3
3
3
3
3
3
3
3
9
9
9
9
9
9
9
9
9
9
9
9
9
9
9
9
9
9
9
9
9
9
9
9
9
9
9
9
9
9
9
9
9
9
9
9
9
9
9
9
9
9
9
9
9
9
9
9
9
9
9
9
9
9
12
12
12
12
12
12
12
12
12
12
12
12
12
12
12
12
12
12
12
12
12
12
12
12
12
12
12
1
1
1
1
1
1
1
1
CELL_DATA 125
SCALARS attribute int 1
LOOKUP_TABLE default
1
1
1
1
1
1
1
1
1
1
1
1
1
1
1
1
1
1
1
1
1
1
1
1
1
1
1
1
1
1
1
1
1
1
-1
9
2
2
2
2
2
2
2
2
2
2
2
2
2
2
2
2
2
2
2
2
2
2
2
2
2
2
2
2
2
2
2
2
2
2
2
2
2
2
2
2
2
2
2
2
2
2
2
2
2
-1
-1
2
-1
9
3
3
3
3
3
3
3
3
3
3
3
3
3
3
3
3
3
3
3
3
3
3
3
3
3
-1
9
4
4
4
4
4
4
-1
9
