# vtk DataFile Version 5.1
Cube structured points dataset
ASCII
DATASET STRUCTURED_GRID
DIMENSIONS 4 4 4
POINTS 64 float
0 0 0
1 0 0
2 0 0
3 0 0
0 1 0
1 1 0
2 1 0
3 1 0
0 2 0
1 2 0
2 2 0
3 2 0
0 3 0
1 3 0
2 3 0
3 3 0
0 0 1
1 0 1
2 0 1
3 0 1
0 1 1
1 1 1
2 1 1
3 1 1
0 2 1
1 2 1
2 2 1
3 2 1
0 3 1
1 3 1
2 3 1
3 3 1
0 0 2
1 0 2
2 0 2
3 0 2
0 1 2
1 1 2
2 1 2
3 1 2
0 2 2
1 2 2
2 2 2
3 2 2
0 3 2
1 3 2
2 3 2
3 3 2
0 0 3
1 0 3
2 0 3
3 0 3
0 1 3
1 1 3
2 1 3
3 1 3
0 2 3
1 2 3
2 2 3
3 2 3
0 3 3
1 3 3
2 3 3
3 3 3
CELL_DATA 27
SCALARS attribute int 1
LOOKUP_TABLE default
3 3 3
3 3 3
3 3 3
3 3 3
3 3 3
3 3 3
3 3 3
3 3 3
3 -1 9
