# vtk DataFile Version 4.2
vtk output
ASCII
DATASET UNSTRUCTURED_GRID

POINTS 26 float
0 0 -1
0 0 0
1 0 0
1 1 0
0 1 0
0 0 1
1 0 1
1 1 1
0 1 1
0 0 2
0 1 2
0 2 2
1.9511 -0.30902 0
2.5388 0.5 0
1.9511 1.30902 0
1.9511 -0.30902 1
2.5388 0.5 1
1.9511 1.30902 1
-0.86603 1.5 0
-1.7321 1 0
-1.7321 0 0
-0.86603 -0.5 0
-0.86603 1.5 1
-1.7321 1 1
-1.7321 0 1
-0.86603 -0.5 1

CELLS 6 183
22 5
3 1 0 4
3 0 2 1
3 0 3 2
3 0 4 3
4 1 4 3 2
31 6
4 1 2 3 4
4 5 6 7 8
4 1 2 6 5
4 2 3 7 6
4 3 4 8 7
4 4 1 5 8
24 5
3 5 9 6
3 8 10 7
4 5 9 10 8
4 6 7 10 9
4 7 8 5 6
17 4
3 8 7 10
3 7 8 11
3 8 10 11
3 7 10 11
38  7
5 2 12 13 14 3 
5 6 15 16 17 7
4 2 12 15 6
4 12 13 16 15
4 13 14 17 16
4 14 3 7 17
4 3 2 6 7
45 8
6 1 4 18 19 20 21
6 5 8 22 23 24 25
4 1 4 8 5
4 4 18 22 8
4 18 19 23 22
4 19 20 24 23
4 20 21 25 24
4 21 1 5 25


CELL_TYPES 6
42
42
42
42
42
42

CELL_DATA 6
SCALARS attribute int 1
LOOKUP_TABLE default
0
1
2
3
4
5
SCALARS test_field float 1
LOOKUP_TABLE default
0
1
2
3
4
5

