# vtk DataFile Version 4.2
vtk output
ASCII
DATASET UNSTRUCTURED_GRID

POINTS 26 float
0 0 -1
0 0 0
1 0 0
1 1 0
0 1 0
0 0 1
1 0 1
1 1 1
0 1 1
0 0 2
0 1 2
0 2 2
1.5 -0.5 0
2 0.5 0
1.5 1.5 0
1.5 -0.5 1
2 0.5 1
1.5 1.5 1
-1 1.5 0
-2 1 0
-2 0 0
-1 -0.5 0
-1 1.5 1
-2 1 1
-2 0 1
-1 -0.5 1

CELLS 6 51
5 1 4 3 2 0
8 1 2 3 4 5 6 7 8
6 5 6 9 8 7 10
4 7 8 10 11
10 2 12 13 14 3 6 15 16 17 7
12 1 4 18 19 20 21 5 8 22 23 24 25

CELL_TYPES 6
14
12
13
10
15
16

CELL_DATA 6
SCALARS attribute int 1
LOOKUP_TABLE default
0
1
2
3
4
5
SCALARS test_field float 1
LOOKUP_TABLE default
0
1
2
3
4
5

