# vtk DataFile Version 4.2
vtk output
ASCII
DATASET UNSTRUCTURED_GRID

POINTS 36 float
0 0 -1
0 0 0
1 0 0
1 1 0
0 1 0
0 0 1
1 0 1
1 1 1
0 1 1
0 0 2
0 1 2
0 2 2
1.9511 -0.30902 0
2.5388 0.5 0
1.9511 1.30902 0
1.9511 -0.30902 1
2.5388 0.5 1
1.9511 1.30902 1
-0.86603 1.5 0
-1.7321 1 0
-1.7321 0 0
-0.86603 -0.5 0
-0.86603 1.5 1
-1.7321 1 1
-1.7321 0 1
-0.86603 -0.5 1
-2.5 1.7 0
-3.5 1.8 0
-4.5 1.2 0
-4.5 -1.25 0
-3.5 -1.5 0
-2.5 1.7 1
-3.5 1.8 1
-4.5 1.2 1
-4.5 -1.25 1
-3.5 -1.5 1

CELLS 7 104
5 1 4 3 2 0
8 1 2 3 4 5 6 7 8
6 5 6 9 8 7 10
4 7 8 10 11
10 2 12 13 14 3 6 15 16 17 7
12 1 4 18 19 20 21 5 8 22 23 24 25
52 9
   7 19 26 27 28 29 30 20
   7 23 31 32 33 34 35 24
   4 19 23 24 20
   4 26 31 23 19
   4 27 32 31 26
   4 28 33 32 27
   4 29 34 33 28
   4 30 35 34 29
   4 20 24 35 30

CELL_TYPES 7
14
12
13
10
15
16
42

CELL_DATA 7
SCALARS attribute int 1
LOOKUP_TABLE default
0
1
2
3
4
5
6
SCALARS test_field float 1
LOOKUP_TABLE default
0
1
2
3
4
5
6

