# vtk DataFile Version 4.2
vtk output
ASCII
DATASET UNSTRUCTURED_GRID

POINTS 112 float
0 0 -1
0 0 0
1 0 0
1 1 0
0 1 0
0 0 1
1 0 1
1 1 1
0 1 1
0 0 2
0 1 2
0 2 2
1.9511 -0.30902 0
2.5388 0.5 0
1.9511 1.30902 0
1.9511 -0.30902 1
2.5388 0.5 1
1.9511 1.30902 1
-0.86603 1.5 0
-1.7321 1 0
-1.7321 0 0
-0.86603 -0.5 0
-0.86603 1.5 1
-1.7321 1 1
-1.7321 0 1
-0.86603 -0.5 1
-2.5 1.7 0
-3.5 1.8 0
-4.5 1.2 0
-4.5 -1.25 0
-3.5 -1.5 0
-2.5 1.7 1
-3.5 1.8 1
-4.5 1.2 1
-4.5 -1.25 1
-3.5 -1.5 1
-0.5	-3	0
-0.93934	-1.93934	0
-2	-1.5	0
-3.06066	-1.93934	0
-3.5	-3	0
-3.06066	-4.06066	0
-2	-4.5	0
-0.93934	-4.06066	0
-0.5	-3	1
-0.93934	-1.93934	1
-2	-1.5	1
-3.06066	-1.93934	1
-3.5	-3	1
-3.06066	-4.06066	1
-2	-4.5	1
-0.93934	-4.06066	1
-0.3	4	0
-0.697724	5.09274	0
-1.7048	5.67417	0
-2.85	5.47224	0
-3.59748	4.58143	0
-3.59748	3.41857	0
-2.85	2.52776	0
-1.7048	2.32583	0
-0.697725	2.90726	0
-0.3	4	1
-0.697724	5.09274	1
-1.7048	5.67417	1
-2.85	5.47224	1
-3.59748	4.58143	1
-3.59748	3.41857	1
-2.85	2.52776	1
-1.7048	2.32583	1
-0.697725	2.90726	1
3.7	-3	0
3.37533	-2.00077	0
2.52533	-1.3832	0
1.47467	-1.3832	0
0.624671	-2.00076	0
0.3	-3	0
0.624671	-3.99923	0
1.47467	-4.6168	0
2.52533	-4.6168	0
3.37533	-3.99924	0
3.7	-3	1
3.37533	-2.00077	1
2.52533	-1.3832	1
1.47467	-1.3832	1
0.624671	-2.00076	1
0.3	-3	1
0.624671	-3.99923	1
1.47467	-4.6168	1
2.52533	-4.6168	1
3.37533	-3.99924	1
4.4	4	0
4.09838	5.02722	0
3.28929	5.7283	0
2.2296	5.88066	0
1.25576	5.43592	0
0.676963	4.53529	0
0.676963	3.46471	0
1.25576	2.56408	0
2.2296	2.11934	0
3.28929	2.2717	0
4.09838	2.97278	0
4.4	4	1
4.09838	5.02722	1
3.28929	5.7283	1
2.2296	5.88066	1
1.25576	5.43592	1
0.676963	4.53529	1
0.676963	3.46471	1
1.25576	2.56408	1
2.2296	2.11934	1
3.28929	2.2717	1
4.09838	2.97278	1

CELLS 11 386
5 1 4 3 2 0
8 1 2 3 4 5 6 7 8
6 5 6 9 8 7 10
4 7 8 10 11
10 2 12 13 14 3 6 15 16 17 7
12 1 4 18 19 20 21 5 8 22 23 24 25
52 9
   7 19 26 27 28 29 30 20
   7 23 31 32 33 34 35 24
   4 19 23 24 20
   4 26 31 23 19
   4 27 32 31 26
   4 28 33 32 27
   4 29 34 33 28
   4 30 35 34 29
   4 20 24 35 30
59 10
8 36 37 38 39 40 41 42 43 
8 44 45 46 47 48 49 50 51 
4 36 37 45 44 
4 37 38 46 45 
4 38 39 47 46 
4 39 40 48 47 
4 40 41 49 48 
4 41 42 50 49 
4 42 43 51 50 
4 43 36 44 51 
66 11
9 52 53 54 55 56 57 58 59 60 
9 61 62 63 64 65 66 67 68 69 
4 52 53 62 61 
4 53 54 63 62 
4 54 55 64 63 
4 55 56 65 64 
4 56 57 66 65 
4 57 58 67 66 
4 58 59 68 67 
4 59 60 69 68 
4 60 52 61 69 
73 12
10 70 71 72 73 74 75 76 77 78 79 
10 80 81 82 83 84 85 86 87 88 89 
4 70 71 81 80 
4 71 72 82 81 
4 72 73 83 82 
4 73 74 84 83 
4 74 75 85 84 
4 75 76 86 85 
4 76 77 87 86 
4 77 78 88 87 
4 78 79 89 88 
4 79 70 80 89 
80 13
11 90 91 92 93 94 95 96 97 98 99 100 
11 101 102 103 104 105 106 107 108 109 110 111 
4 90 91 102 101 
4 91 92 103 102 
4 92 93 104 103 
4 93 94 105 104 
4 94 95 106 105 
4 95 96 107 106 
4 96 97 108 107 
4 97 98 109 108 
4 98 99 110 109 
4 99 100 111 110 
4 100 90 101 111 

CELL_TYPES 11
14
12
13
10
15
16
42
42
42
42
42

CELL_DATA 11
SCALARS attribute int 1
LOOKUP_TABLE default
0
1
2
3
4
5
6
7
8
9
10
SCALARS test_field float 1
LOOKUP_TABLE default
0
1
2
3
4
5
6
7
8
9
10
