--------------------------------------------------------------------------------
----- ECLIPSE Data File Generated From SKUA-GOCAD
----- Name of Exported SGrid: SPE10_small
----- Contact Paradigm for help or extension
-----       http://hub.paradigmgeo.com
--------------------------------------------------------------------------------

SPECGRID
      60  220  1  1  F  /

GRIDUNIT
'FEET'   /

MAPUNITS
'FEET'   /

MAPAXES
      0.000000  1834.239990
      0.000000  2200.000000
      365.760010  2200.000000  /

COORD
0.000000 0.000008 12167.999988   0.000000 0.000008 12170.000051 
20.000001 0.000008 12167.999988   20.000001 0.000008 12170.000051 
40.000001 0.000008 12167.999988   40.000001 0.000008 12170.000051 
60.000000 0.000008 12167.999988   60.000000 0.000008 12170.000051 
80.000003 0.000008 12167.999988   80.000003 0.000008 12170.000051 
99.999998 0.000008 12167.999988   99.999998 0.000008 12170.000051 
120.000001 0.000008 12167.999988   120.000001 0.000008 12170.000051 
140.000003 0.000008 12167.999988   140.000003 0.000008 12170.000051 
160.000005 0.000008 12167.999988   160.000005 0.000008 12170.000051 
179.999995 0.000008 12167.999988   179.999995 0.000008 12170.000051 
199.999997 0.000008 12167.999988   199.999997 0.000008 12170.000051 
219.999999 0.000008 12167.999988   219.999999 0.000008 12170.000051 
240.000001 0.000008 12167.999988   240.000001 0.000008 12170.000051 
260.000004 0.000008 12167.999988   260.000004 0.000008 12170.000051 
280.000006 0.000008 12167.999988   280.000006 0.000008 12170.000051 
300.000008 0.000008 12167.999988   300.000008 0.000008 12170.000051 
320.000010 0.000008 12167.999988   320.000010 0.000008 12170.000051 
340.000012 0.000008 12167.999988   340.000012 0.000008 12170.000051 
359.999990 0.000008 12167.999988   359.999990 0.000008 12170.000051 
379.999992 0.000008 12167.999988   379.999992 0.000008 12170.000051 
399.999994 0.000008 12167.999988   399.999994 0.000008 12170.000051 
420.000021 0.000008 12167.999988   420.000021 0.000008 12170.000051 
439.999998 0.000008 12167.999988   439.999998 0.000008 12170.000051 
459.999976 0.000008 12167.999988   459.999976 0.000008 12170.000051 
480.000003 0.000008 12167.999988   480.000003 0.000008 12170.000051 
499.999980 0.000008 12167.999988   499.999980 0.000008 12170.000051 
520.000007 0.000008 12167.999988   520.000007 0.000008 12170.000051 
539.999984 0.000008 12167.999988   539.999984 0.000008 12170.000051 
560.000012 0.000008 12167.999988   560.000012 0.000008 12170.000051 
579.999989 0.000008 12167.999988   579.999989 0.000008 12170.000051 
600.000016 0.000008 12167.999988   600.000016 0.000008 12170.000051 
619.999993 0.000008 12167.999988   619.999993 0.000008 12170.000051 
640.000020 0.000008 12167.999988   640.000020 0.000008 12170.000051 
659.999998 0.000008 12167.999988   659.999998 0.000008 12170.000051 
680.000025 0.000008 12167.999988   680.000025 0.000008 12170.000051 
700.000002 0.000008 12167.999988   700.000002 0.000008 12170.000051 
719.999979 0.000008 12167.999988   719.999979 0.000008 12170.000051 
740.000006 0.000008 12167.999988   740.000006 0.000008 12170.000051 
759.999984 0.000008 12167.999988   759.999984 0.000008 12170.000051 
780.000011 0.000008 12167.999988   780.000011 0.000008 12170.000051 
799.999988 0.000008 12167.999988   799.999988 0.000008 12170.000051 
820.000015 0.000008 12167.999988   820.000015 0.000008 12170.000051 
840.000042 0.000008 12167.999988   840.000042 0.000008 12170.000051 
859.999970 0.000008 12167.999988   859.999970 0.000008 12170.000051 
879.999997 0.000008 12167.999988   879.999997 0.000008 12170.000051 
900.000024 0.000008 12167.999988   900.000024 0.000008 12170.000051 
919.999951 0.000008 12167.999988   919.999951 0.000008 12170.000051 
939.999978 0.000008 12167.999988   939.999978 0.000008 12170.000051 
960.000006 0.000008 12167.999988   960.000006 0.000008 12170.000051 
980.000033 0.000008 12167.999988   980.000033 0.000008 12170.000051 
999.999960 0.000008 12167.999988   999.999960 0.000008 12170.000051 
1019.999987 0.000008 12167.999988   1019.999987 0.000008 12170.000051 
1040.000014 0.000008 12167.999988   1040.000014 0.000008 12170.000051 
1060.000042 0.000008 12167.999988   1060.000042 0.000008 12170.000051 
1079.999969 0.000008 12167.999988   1079.999969 0.000008 12170.000051 
1099.999996 0.000008 12167.999988   1099.999996 0.000008 12170.000051 
1120.000023 0.000008 12167.999988   1120.000023 0.000008 12170.000051 
1139.999950 0.000008 12167.999988   1139.999950 0.000008 12170.000051 
1159.999978 0.000008 12167.999988   1159.999978 0.000008 12170.000051 
1180.000005 0.000008 12167.999988   1180.000005 0.000008 12170.000051 
1200.000032 0.000008 12167.999988   1200.000032 0.000008 12170.000051 
0.000000 9.999922 12167.999988   0.000000 9.999922 12170.000051 
20.000001 9.999922 12167.999988   20.000001 9.999922 12170.000051 
40.000001 9.999922 12167.999988   40.000001 9.999922 12170.000051 
60.000000 9.999922 12167.999988   60.000000 9.999922 12170.000051 
80.000003 9.999922 12167.999988   80.000003 9.999922 12170.000051 
99.999998 9.999922 12167.999988   99.999998 9.999922 12170.000051 
120.000001 9.999922 12167.999988   120.000001 9.999922 12170.000051 
140.000003 9.999922 12167.999988   140.000003 9.999922 12170.000051 
160.000005 9.999922 12167.999988   160.000005 9.999922 12170.000051 
179.999995 9.999922 12167.999988   179.999995 9.999922 12170.000051 
199.999997 9.999922 12167.999988   199.999997 9.999922 12170.000051 
219.999999 9.999922 12167.999988   219.999999 9.999922 12170.000051 
240.000001 9.999922 12167.999988   240.000001 9.999922 12170.000051 
260.000004 9.999922 12167.999988   260.000004 9.999922 12170.000051 
280.000006 9.999922 12167.999988   280.000006 9.999922 12170.000051 
300.000008 9.999922 12167.999988   300.000008 9.999922 12170.000051 
320.000010 9.999922 12167.999988   320.000010 9.999922 12170.000051 
340.000012 9.999922 12167.999988   340.000012 9.999922 12170.000051 
359.999990 9.999922 12167.999988   359.999990 9.999922 12170.000051 
379.999992 9.999922 12167.999988   379.999992 9.999922 12170.000051 
399.999994 9.999922 12167.999988   399.999994 9.999922 12170.000051 
420.000021 9.999922 12167.999988   420.000021 9.999922 12170.000051 
439.999998 9.999922 12167.999988   439.999998 9.999922 12170.000051 
459.999976 9.999922 12167.999988   459.999976 9.999922 12170.000051 
480.000003 9.999922 12167.999988   480.000003 9.999922 12170.000051 
499.999980 9.999922 12167.999988   499.999980 9.999922 12170.000051 
520.000007 9.999922 12167.999988   520.000007 9.999922 12170.000051 
539.999984 9.999922 12167.999988   539.999984 9.999922 12170.000051 
560.000012 9.999922 12167.999988   560.000012 9.999922 12170.000051 
579.999989 9.999922 12167.999988   579.999989 9.999922 12170.000051 
600.000016 9.999922 12167.999988   600.000016 9.999922 12170.000051 
619.999993 9.999922 12167.999988   619.999993 9.999922 12170.000051 
640.000020 9.999922 12167.999988   640.000020 9.999922 12170.000051 
659.999998 9.999922 12167.999988   659.999998 9.999922 12170.000051 
680.000025 9.999922 12167.999988   680.000025 9.999922 12170.000051 
700.000002 9.999922 12167.999988   700.000002 9.999922 12170.000051 
719.999979 9.999922 12167.999988   719.999979 9.999922 12170.000051 
740.000006 9.999922 12167.999988   740.000006 9.999922 12170.000051 
759.999984 9.999922 12167.999988   759.999984 9.999922 12170.000051 
780.000011 9.999922 12167.999988   780.000011 9.999922 12170.000051 
799.999988 9.999922 12167.999988   799.999988 9.999922 12170.000051 
820.000015 9.999922 12167.999988   820.000015 9.999922 12170.000051 
840.000042 9.999922 12167.999988   840.000042 9.999922 12170.000051 
859.999970 9.999922 12167.999988   859.999970 9.999922 12170.000051 
879.999997 9.999922 12167.999988   879.999997 9.999922 12170.000051 
900.000024 9.999922 12167.999988   900.000024 9.999922 12170.000051 
919.999951 9.999922 12167.999988   919.999951 9.999922 12170.000051 
939.999978 9.999922 12167.999988   939.999978 9.999922 12170.000051 
960.000006 9.999922 12167.999988   960.000006 9.999922 12170.000051 
980.000033 9.999922 12167.999988   980.000033 9.999922 12170.000051 
999.999960 9.999922 12167.999988   999.999960 9.999922 12170.000051 
1019.999987 9.999922 12167.999988   1019.999987 9.999922 12170.000051 
1040.000014 9.999922 12167.999988   1040.000014 9.999922 12170.000051 
1060.000042 9.999922 12167.999988   1060.000042 9.999922 12170.000051 
1079.999969 9.999922 12167.999988   1079.999969 9.999922 12170.000051 
1099.999996 9.999922 12167.999988   1099.999996 9.999922 12170.000051 
1120.000023 9.999922 12167.999988   1120.000023 9.999922 12170.000051 
1139.999950 9.999922 12167.999988   1139.999950 9.999922 12170.000051 
1159.999978 9.999922 12167.999988   1159.999978 9.999922 12170.000051 
1180.000005 9.999922 12167.999988   1180.000005 9.999922 12170.000051 
1200.000032 9.999922 12167.999988   1200.000032 9.999922 12170.000051 
0.000000 20.000035 12167.999988   0.000000 20.000035 12170.000051 
20.000001 20.000035 12167.999988   20.000001 20.000035 12170.000051 
40.000001 20.000035 12167.999988   40.000001 20.000035 12170.000051 
60.000000 20.000035 12167.999988   60.000000 20.000035 12170.000051 
80.000003 20.000035 12167.999988   80.000003 20.000035 12170.000051 
99.999998 20.000035 12167.999988   99.999998 20.000035 12170.000051 
120.000001 20.000035 12167.999988   120.000001 20.000035 12170.000051 
140.000003 20.000035 12167.999988   140.000003 20.000035 12170.000051 
160.000005 20.000035 12167.999988   160.000005 20.000035 12170.000051 
179.999995 20.000035 12167.999988   179.999995 20.000035 12170.000051 
199.999997 20.000035 12167.999988   199.999997 20.000035 12170.000051 
219.999999 20.000035 12167.999988   219.999999 20.000035 12170.000051 
240.000001 20.000035 12167.999988   240.000001 20.000035 12170.000051 
260.000004 20.000035 12167.999988   260.000004 20.000035 12170.000051 
280.000006 20.000035 12167.999988   280.000006 20.000035 12170.000051 
300.000008 20.000035 12167.999988   300.000008 20.000035 12170.000051 
320.000010 20.000035 12167.999988   320.000010 20.000035 12170.000051 
340.000012 20.000035 12167.999988   340.000012 20.000035 12170.000051 
359.999990 20.000035 12167.999988   359.999990 20.000035 12170.000051 
379.999992 20.000035 12167.999988   379.999992 20.000035 12170.000051 
399.999994 20.000035 12167.999988   399.999994 20.000035 12170.000051 
420.000021 20.000035 12167.999988   420.000021 20.000035 12170.000051 
439.999998 20.000035 12167.999988   439.999998 20.000035 12170.000051 
459.999976 20.000035 12167.999988   459.999976 20.000035 12170.000051 
480.000003 20.000035 12167.999988   480.000003 20.000035 12170.000051 
499.999980 20.000035 12167.999988   499.999980 20.000035 12170.000051 
520.000007 20.000035 12167.999988   520.000007 20.000035 12170.000051 
539.999984 20.000035 12167.999988   539.999984 20.000035 12170.000051 
560.000012 20.000035 12167.999988   560.000012 20.000035 12170.000051 
579.999989 20.000035 12167.999988   579.999989 20.000035 12170.000051 
600.000016 20.000035 12167.999988   600.000016 20.000035 12170.000051 
619.999993 20.000035 12167.999988   619.999993 20.000035 12170.000051 
640.000020 20.000035 12167.999988   640.000020 20.000035 12170.000051 
659.999998 20.000035 12167.999988   659.999998 20.000035 12170.000051 
680.000025 20.000035 12167.999988   680.000025 20.000035 12170.000051 
700.000002 20.000035 12167.999988   700.000002 20.000035 12170.000051 
719.999979 20.000035 12167.999988   719.999979 20.000035 12170.000051 
740.000006 20.000035 12167.999988   740.000006 20.000035 12170.000051 
759.999984 20.000035 12167.999988   759.999984 20.000035 12170.000051 
780.000011 20.000035 12167.999988   780.000011 20.000035 12170.000051 
799.999988 20.000035 12167.999988   799.999988 20.000035 12170.000051 
820.000015 20.000035 12167.999988   820.000015 20.000035 12170.000051 
840.000042 20.000035 12167.999988   840.000042 20.000035 12170.000051 
859.999970 20.000035 12167.999988   859.999970 20.000035 12170.000051 
879.999997 20.000035 12167.999988   879.999997 20.000035 12170.000051 
900.000024 20.000035 12167.999988   900.000024 20.000035 12170.000051 
919.999951 20.000035 12167.999988   919.999951 20.000035 12170.000051 
939.999978 20.000035 12167.999988   939.999978 20.000035 12170.000051 
960.000006 20.000035 12167.999988   960.000006 20.000035 12170.000051 
980.000033 20.000035 12167.999988   980.000033 20.000035 12170.000051 
999.999960 20.000035 12167.999988   999.999960 20.000035 12170.000051 
1019.999987 20.000035 12167.999988   1019.999987 20.000035 12170.000051 
1040.000014 20.000035 12167.999988   1040.000014 20.000035 12170.000051 
1060.000042 20.000035 12167.999988   1060.000042 20.000035 12170.000051 
1079.999969 20.000035 12167.999988   1079.999969 20.000035 12170.000051 
1099.999996 20.000035 12167.999988   1099.999996 20.000035 12170.000051 
1120.000023 20.000035 12167.999988   1120.000023 20.000035 12170.000051 
1139.999950 20.000035 12167.999988   1139.999950 20.000035 12170.000051 
1159.999978 20.000035 12167.999988   1159.999978 20.000035 12170.000051 
1180.000005 20.000035 12167.999988   1180.000005 20.000035 12170.000051 
1200.000032 20.000035 12167.999988   1200.000032 20.000035 12170.000051 
0.000000 29.999949 12167.999988   0.000000 29.999949 12170.000051 
20.000001 29.999949 12167.999988   20.000001 29.999949 12170.000051 
40.000001 29.999949 12167.999988   40.000001 29.999949 12170.000051 
60.000000 29.999949 12167.999988   60.000000 29.999949 12170.000051 
80.000003 29.999949 12167.999988   80.000003 29.999949 12170.000051 
99.999998 29.999949 12167.999988   99.999998 29.999949 12170.000051 
120.000001 29.999949 12167.999988   120.000001 29.999949 12170.000051 
140.000003 29.999949 12167.999988   140.000003 29.999949 12170.000051 
160.000005 29.999949 12167.999988   160.000005 29.999949 12170.000051 
179.999995 29.999949 12167.999988   179.999995 29.999949 12170.000051 
199.999997 29.999949 12167.999988   199.999997 29.999949 12170.000051 
219.999999 29.999949 12167.999988   219.999999 29.999949 12170.000051 
240.000001 29.999949 12167.999988   240.000001 29.999949 12170.000051 
260.000004 29.999949 12167.999988   260.000004 29.999949 12170.000051 
280.000006 29.999949 12167.999988   280.000006 29.999949 12170.000051 
300.000008 29.999949 12167.999988   300.000008 29.999949 12170.000051 
320.000010 29.999949 12167.999988   320.000010 29.999949 12170.000051 
340.000012 29.999949 12167.999988   340.000012 29.999949 12170.000051 
359.999990 29.999949 12167.999988   359.999990 29.999949 12170.000051 
379.999992 29.999949 12167.999988   379.999992 29.999949 12170.000051 
399.999994 29.999949 12167.999988   399.999994 29.999949 12170.000051 
420.000021 29.999949 12167.999988   420.000021 29.999949 12170.000051 
439.999998 29.999949 12167.999988   439.999998 29.999949 12170.000051 
459.999976 29.999949 12167.999988   459.999976 29.999949 12170.000051 
480.000003 29.999949 12167.999988   480.000003 29.999949 12170.000051 
499.999980 29.999949 12167.999988   499.999980 29.999949 12170.000051 
520.000007 29.999949 12167.999988   520.000007 29.999949 12170.000051 
539.999984 29.999949 12167.999988   539.999984 29.999949 12170.000051 
560.000012 29.999949 12167.999988   560.000012 29.999949 12170.000051 
579.999989 29.999949 12167.999988   579.999989 29.999949 12170.000051 
600.000016 29.999949 12167.999988   600.000016 29.999949 12170.000051 
619.999993 29.999949 12167.999988   619.999993 29.999949 12170.000051 
640.000020 29.999949 12167.999988   640.000020 29.999949 12170.000051 
659.999998 29.999949 12167.999988   659.999998 29.999949 12170.000051 
680.000025 29.999949 12167.999988   680.000025 29.999949 12170.000051 
700.000002 29.999949 12167.999988   700.000002 29.999949 12170.000051 
719.999979 29.999949 12167.999988   719.999979 29.999949 12170.000051 
740.000006 29.999949 12167.999988   740.000006 29.999949 12170.000051 
759.999984 29.999949 12167.999988   759.999984 29.999949 12170.000051 
780.000011 29.999949 12167.999988   780.000011 29.999949 12170.000051 
799.999988 29.999949 12167.999988   799.999988 29.999949 12170.000051 
820.000015 29.999949 12167.999988   820.000015 29.999949 12170.000051 
840.000042 29.999949 12167.999988   840.000042 29.999949 12170.000051 
859.999970 29.999949 12167.999988   859.999970 29.999949 12170.000051 
879.999997 29.999949 12167.999988   879.999997 29.999949 12170.000051 
900.000024 29.999949 12167.999988   900.000024 29.999949 12170.000051 
919.999951 29.999949 12167.999988   919.999951 29.999949 12170.000051 
939.999978 29.999949 12167.999988   939.999978 29.999949 12170.000051 
960.000006 29.999949 12167.999988   960.000006 29.999949 12170.000051 
980.000033 29.999949 12167.999988   980.000033 29.999949 12170.000051 
999.999960 29.999949 12167.999988   999.999960 29.999949 12170.000051 
1019.999987 29.999949 12167.999988   1019.999987 29.999949 12170.000051 
1040.000014 29.999949 12167.999988   1040.000014 29.999949 12170.000051 
1060.000042 29.999949 12167.999988   1060.000042 29.999949 12170.000051 
1079.999969 29.999949 12167.999988   1079.999969 29.999949 12170.000051 
1099.999996 29.999949 12167.999988   1099.999996 29.999949 12170.000051 
1120.000023 29.999949 12167.999988   1120.000023 29.999949 12170.000051 
1139.999950 29.999949 12167.999988   1139.999950 29.999949 12170.000051 
1159.999978 29.999949 12167.999988   1159.999978 29.999949 12170.000051 
1180.000005 29.999949 12167.999988   1180.000005 29.999949 12170.000051 
1200.000032 29.999949 12167.999988   1200.000032 29.999949 12170.000051 
0.000000 40.000062 12167.999988   0.000000 40.000062 12170.000051 
20.000001 40.000062 12167.999988   20.000001 40.000062 12170.000051 
40.000001 40.000062 12167.999988   40.000001 40.000062 12170.000051 
60.000000 40.000062 12167.999988   60.000000 40.000062 12170.000051 
80.000003 40.000062 12167.999988   80.000003 40.000062 12170.000051 
99.999998 40.000062 12167.999988   99.999998 40.000062 12170.000051 
120.000001 40.000062 12167.999988   120.000001 40.000062 12170.000051 
140.000003 40.000062 12167.999988   140.000003 40.000062 12170.000051 
160.000005 40.000062 12167.999988   160.000005 40.000062 12170.000051 
179.999995 40.000062 12167.999988   179.999995 40.000062 12170.000051 
199.999997 40.000062 12167.999988   199.999997 40.000062 12170.000051 
219.999999 40.000062 12167.999988   219.999999 40.000062 12170.000051 
240.000001 40.000062 12167.999988   240.000001 40.000062 12170.000051 
260.000004 40.000062 12167.999988   260.000004 40.000062 12170.000051 
280.000006 40.000062 12167.999988   280.000006 40.000062 12170.000051 
300.000008 40.000062 12167.999988   300.000008 40.000062 12170.000051 
320.000010 40.000062 12167.999988   320.000010 40.000062 12170.000051 
340.000012 40.000062 12167.999988   340.000012 40.000062 12170.000051 
359.999990 40.000062 12167.999988   359.999990 40.000062 12170.000051 
379.999992 40.000062 12167.999988   379.999992 40.000062 12170.000051 
399.999994 40.000062 12167.999988   399.999994 40.000062 12170.000051 
420.000021 40.000062 12167.999988   420.000021 40.000062 12170.000051 
439.999998 40.000062 12167.999988   439.999998 40.000062 12170.000051 
459.999976 40.000062 12167.999988   459.999976 40.000062 12170.000051 
480.000003 40.000062 12167.999988   480.000003 40.000062 12170.000051 
499.999980 40.000062 12167.999988   499.999980 40.000062 12170.000051 
520.000007 40.000062 12167.999988   520.000007 40.000062 12170.000051 
539.999984 40.000062 12167.999988   539.999984 40.000062 12170.000051 
560.000012 40.000062 12167.999988   560.000012 40.000062 12170.000051 
579.999989 40.000062 12167.999988   579.999989 40.000062 12170.000051 
600.000016 40.000062 12167.999988   600.000016 40.000062 12170.000051 
619.999993 40.000062 12167.999988   619.999993 40.000062 12170.000051 
640.000020 40.000062 12167.999988   640.000020 40.000062 12170.000051 
659.999998 40.000062 12167.999988   659.999998 40.000062 12170.000051 
680.000025 40.000062 12167.999988   680.000025 40.000062 12170.000051 
700.000002 40.000062 12167.999988   700.000002 40.000062 12170.000051 
719.999979 40.000062 12167.999988   719.999979 40.000062 12170.000051 
740.000006 40.000062 12167.999988   740.000006 40.000062 12170.000051 
759.999984 40.000062 12167.999988   759.999984 40.000062 12170.000051 
780.000011 40.000062 12167.999988   780.000011 40.000062 12170.000051 
799.999988 40.000062 12167.999988   799.999988 40.000062 12170.000051 
820.000015 40.000062 12167.999988   820.000015 40.000062 12170.000051 
840.000042 40.000062 12167.999988   840.000042 40.000062 12170.000051 
859.999970 40.000062 12167.999988   859.999970 40.000062 12170.000051 
879.999997 40.000062 12167.999988   879.999997 40.000062 12170.000051 
900.000024 40.000062 12167.999988   900.000024 40.000062 12170.000051 
919.999951 40.000062 12167.999988   919.999951 40.000062 12170.000051 
939.999978 40.000062 12167.999988   939.999978 40.000062 12170.000051 
960.000006 40.000062 12167.999988   960.000006 40.000062 12170.000051 
980.000033 40.000062 12167.999988   980.000033 40.000062 12170.000051 
999.999960 40.000062 12167.999988   999.999960 40.000062 12170.000051 
1019.999987 40.000062 12167.999988   1019.999987 40.000062 12170.000051 
1040.000014 40.000062 12167.999988   1040.000014 40.000062 12170.000051 
1060.000042 40.000062 12167.999988   1060.000042 40.000062 12170.000051 
1079.999969 40.000062 12167.999988   1079.999969 40.000062 12170.000051 
1099.999996 40.000062 12167.999988   1099.999996 40.000062 12170.000051 
1120.000023 40.000062 12167.999988   1120.000023 40.000062 12170.000051 
1139.999950 40.000062 12167.999988   1139.999950 40.000062 12170.000051 
1159.999978 40.000062 12167.999988   1159.999978 40.000062 12170.000051 
1180.000005 40.000062 12167.999988   1180.000005 40.000062 12170.000051 
1200.000032 40.000062 12167.999988   1200.000032 40.000062 12170.000051 
0.000000 49.999976 12167.999988   0.000000 49.999976 12170.000051 
20.000001 49.999976 12167.999988   20.000001 49.999976 12170.000051 
40.000001 49.999976 12167.999988   40.000001 49.999976 12170.000051 
60.000000 49.999976 12167.999988   60.000000 49.999976 12170.000051 
80.000003 49.999976 12167.999988   80.000003 49.999976 12170.000051 
99.999998 49.999976 12167.999988   99.999998 49.999976 12170.000051 
120.000001 49.999976 12167.999988   120.000001 49.999976 12170.000051 
140.000003 49.999976 12167.999988   140.000003 49.999976 12170.000051 
160.000005 49.999976 12167.999988   160.000005 49.999976 12170.000051 
179.999995 49.999976 12167.999988   179.999995 49.999976 12170.000051 
199.999997 49.999976 12167.999988   199.999997 49.999976 12170.000051 
219.999999 49.999976 12167.999988   219.999999 49.999976 12170.000051 
240.000001 49.999976 12167.999988   240.000001 49.999976 12170.000051 
260.000004 49.999976 12167.999988   260.000004 49.999976 12170.000051 
280.000006 49.999976 12167.999988   280.000006 49.999976 12170.000051 
300.000008 49.999976 12167.999988   300.000008 49.999976 12170.000051 
320.000010 49.999976 12167.999988   320.000010 49.999976 12170.000051 
340.000012 49.999976 12167.999988   340.000012 49.999976 12170.000051 
359.999990 49.999976 12167.999988   359.999990 49.999976 12170.000051 
379.999992 49.999976 12167.999988   379.999992 49.999976 12170.000051 
399.999994 49.999976 12167.999988   399.999994 49.999976 12170.000051 
420.000021 49.999976 12167.999988   420.000021 49.999976 12170.000051 
439.999998 49.999976 12167.999988   439.999998 49.999976 12170.000051 
459.999976 49.999976 12167.999988   459.999976 49.999976 12170.000051 
480.000003 49.999976 12167.999988   480.000003 49.999976 12170.000051 
499.999980 49.999976 12167.999988   499.999980 49.999976 12170.000051 
520.000007 49.999976 12167.999988   520.000007 49.999976 12170.000051 
539.999984 49.999976 12167.999988   539.999984 49.999976 12170.000051 
560.000012 49.999976 12167.999988   560.000012 49.999976 12170.000051 
579.999989 49.999976 12167.999988   579.999989 49.999976 12170.000051 
600.000016 49.999976 12167.999988   600.000016 49.999976 12170.000051 
619.999993 49.999976 12167.999988   619.999993 49.999976 12170.000051 
640.000020 49.999976 12167.999988   640.000020 49.999976 12170.000051 
659.999998 49.999976 12167.999988   659.999998 49.999976 12170.000051 
680.000025 49.999976 12167.999988   680.000025 49.999976 12170.000051 
700.000002 49.999976 12167.999988   700.000002 49.999976 12170.000051 
719.999979 49.999976 12167.999988   719.999979 49.999976 12170.000051 
740.000006 49.999976 12167.999988   740.000006 49.999976 12170.000051 
759.999984 49.999976 12167.999988   759.999984 49.999976 12170.000051 
780.000011 49.999976 12167.999988   780.000011 49.999976 12170.000051 
799.999988 49.999976 12167.999988   799.999988 49.999976 12170.000051 
820.000015 49.999976 12167.999988   820.000015 49.999976 12170.000051 
840.000042 49.999976 12167.999988   840.000042 49.999976 12170.000051 
859.999970 49.999976 12167.999988   859.999970 49.999976 12170.000051 
879.999997 49.999976 12167.999988   879.999997 49.999976 12170.000051 
900.000024 49.999976 12167.999988   900.000024 49.999976 12170.000051 
919.999951 49.999976 12167.999988   919.999951 49.999976 12170.000051 
939.999978 49.999976 12167.999988   939.999978 49.999976 12170.000051 
960.000006 49.999976 12167.999988   960.000006 49.999976 12170.000051 
980.000033 49.999976 12167.999988   980.000033 49.999976 12170.000051 
999.999960 49.999976 12167.999988   999.999960 49.999976 12170.000051 
1019.999987 49.999976 12167.999988   1019.999987 49.999976 12170.000051 
1040.000014 49.999976 12167.999988   1040.000014 49.999976 12170.000051 
1060.000042 49.999976 12167.999988   1060.000042 49.999976 12170.000051 
1079.999969 49.999976 12167.999988   1079.999969 49.999976 12170.000051 
1099.999996 49.999976 12167.999988   1099.999996 49.999976 12170.000051 
1120.000023 49.999976 12167.999988   1120.000023 49.999976 12170.000051 
1139.999950 49.999976 12167.999988   1139.999950 49.999976 12170.000051 
1159.999978 49.999976 12167.999988   1159.999978 49.999976 12170.000051 
1180.000005 49.999976 12167.999988   1180.000005 49.999976 12170.000051 
1200.000032 49.999976 12167.999988   1200.000032 49.999976 12170.000051 
0.000000 60.000090 12167.999988   0.000000 60.000090 12170.000051 
20.000001 60.000090 12167.999988   20.000001 60.000090 12170.000051 
40.000001 60.000090 12167.999988   40.000001 60.000090 12170.000051 
60.000000 60.000090 12167.999988   60.000000 60.000090 12170.000051 
80.000003 60.000090 12167.999988   80.000003 60.000090 12170.000051 
99.999998 60.000090 12167.999988   99.999998 60.000090 12170.000051 
120.000001 60.000090 12167.999988   120.000001 60.000090 12170.000051 
140.000003 60.000090 12167.999988   140.000003 60.000090 12170.000051 
160.000005 60.000090 12167.999988   160.000005 60.000090 12170.000051 
179.999995 60.000090 12167.999988   179.999995 60.000090 12170.000051 
199.999997 60.000090 12167.999988   199.999997 60.000090 12170.000051 
219.999999 60.000090 12167.999988   219.999999 60.000090 12170.000051 
240.000001 60.000090 12167.999988   240.000001 60.000090 12170.000051 
260.000004 60.000090 12167.999988   260.000004 60.000090 12170.000051 
280.000006 60.000090 12167.999988   280.000006 60.000090 12170.000051 
300.000008 60.000090 12167.999988   300.000008 60.000090 12170.000051 
320.000010 60.000090 12167.999988   320.000010 60.000090 12170.000051 
340.000012 60.000090 12167.999988   340.000012 60.000090 12170.000051 
359.999990 60.000090 12167.999988   359.999990 60.000090 12170.000051 
379.999992 60.000090 12167.999988   379.999992 60.000090 12170.000051 
399.999994 60.000090 12167.999988   399.999994 60.000090 12170.000051 
420.000021 60.000090 12167.999988   420.000021 60.000090 12170.000051 
439.999998 60.000090 12167.999988   439.999998 60.000090 12170.000051 
459.999976 60.000090 12167.999988   459.999976 60.000090 12170.000051 
480.000003 60.000090 12167.999988   480.000003 60.000090 12170.000051 
499.999980 60.000090 12167.999988   499.999980 60.000090 12170.000051 
520.000007 60.000090 12167.999988   520.000007 60.000090 12170.000051 
539.999984 60.000090 12167.999988   539.999984 60.000090 12170.000051 
560.000012 60.000090 12167.999988   560.000012 60.000090 12170.000051 
579.999989 60.000090 12167.999988   579.999989 60.000090 12170.000051 
600.000016 60.000090 12167.999988   600.000016 60.000090 12170.000051 
619.999993 60.000090 12167.999988   619.999993 60.000090 12170.000051 
640.000020 60.000090 12167.999988   640.000020 60.000090 12170.000051 
659.999998 60.000090 12167.999988   659.999998 60.000090 12170.000051 
680.000025 60.000090 12167.999988   680.000025 60.000090 12170.000051 
700.000002 60.000090 12167.999988   700.000002 60.000090 12170.000051 
719.999979 60.000090 12167.999988   719.999979 60.000090 12170.000051 
740.000006 60.000090 12167.999988   740.000006 60.000090 12170.000051 
759.999984 60.000090 12167.999988   759.999984 60.000090 12170.000051 
780.000011 60.000090 12167.999988   780.000011 60.000090 12170.000051 
799.999988 60.000090 12167.999988   799.999988 60.000090 12170.000051 
820.000015 60.000090 12167.999988   820.000015 60.000090 12170.000051 
840.000042 60.000090 12167.999988   840.000042 60.000090 12170.000051 
859.999970 60.000090 12167.999988   859.999970 60.000090 12170.000051 
879.999997 60.000090 12167.999988   879.999997 60.000090 12170.000051 
900.000024 60.000090 12167.999988   900.000024 60.000090 12170.000051 
919.999951 60.000090 12167.999988   919.999951 60.000090 12170.000051 
939.999978 60.000090 12167.999988   939.999978 60.000090 12170.000051 
960.000006 60.000090 12167.999988   960.000006 60.000090 12170.000051 
980.000033 60.000090 12167.999988   980.000033 60.000090 12170.000051 
999.999960 60.000090 12167.999988   999.999960 60.000090 12170.000051 
1019.999987 60.000090 12167.999988   1019.999987 60.000090 12170.000051 