# vtk DataFile Version 4.2
vtk output
ASCII
DATASET UNSTRUCTURED_GRID

POINTS 143 float
-1.49982 -1.19425 0.634363
0.590299 -1.19425 -1.5177
-0.669609 1.79076 -0.650334
1.57913 0.597752 1.53368
3.6341 -1.55241 0.76443
5.72422 -1.55241 -1.38764
5.50937 1.43261 -1.5963
3.41925 1.43261 0.555767
6.71305 0.2396 1.66374
10.0245 -0.846253 -2.06718
7.93441 -0.846253 0.0848832
8.82908 1.24326 -1.13722
12.1658 -0.546753 0.0124933
10.0757 -0.546753 2.16456
10.9704 1.54276 0.942463
14.3264 -6.36855 0.117106
16.0682 -6.36855 -1.67628
14.1474 -3.88104 -0.0567807
15.8891 -3.88104 -1.85017
16.1109 -6.11896 1.85017
17.8526 -6.11896 0.0567807
15.9318 -3.63145 1.67628
17.6736 -3.63145 -0.117106
14.3264 -1.36855 0.117106
16.0682 -1.36855 -1.67628
15.8891 1.11896 -1.85017
14.1474 1.11896 -0.0567807
16.1109 -1.11896 1.85017
17.8526 -1.11896 0.0567807
17.6736 1.36855 -0.117106
15.9318 1.36855 1.67628
-0.480266 -3.60023 -0.788983
-1.51609 -4.40023 0.392751
-1.19654 -6.13257 0.313205
0.0367821 -6.40321 -0.917691
0.479461 -4.83814 -1.59888
0.590393 -3.45048 0.250856
-0.44543 -4.25048 1.43259
-0.125877 -5.98282 1.35304
1.10744 -6.25346 0.122148
1.55012 -4.68839 -0.559041
5.50973 -5.07487 -1.59595
4.89417 -3.78233 -1.14829
3.84911 -3.78233 -0.0722567
3.41961 -5.07487 0.556114
4.03517 -6.36742 0.108452
5.08023 -6.36742 -0.967582
6.58039 -4.92513 -0.556114
5.96483 -3.63258 -0.108452
4.91977 -3.63258 0.967582
4.49027 -4.92512 1.59595
5.10583 -6.21767 1.14829
6.15089 -6.21767 0.0722567
0.517767 -10.149 -1.58815
-0.0428441 -8.99963 -1.34534
-0.968255 -8.71576 -0.47509
-1.56161 -9.51115 0.367275
-1.37611 -10.7869 0.547443
-0.551425 -11.5822 -0.0702581
0.291428 -11.2984 -1.02069
1.57235 -9.851 -0.56392
1.01174 -8.70163 -0.321107
0.0863298 -8.41776 0.549138
-0.507027 -9.21315 1.3915
-0.321521 -10.4889 1.57167
0.50316 -11.2842 0.95397
1.34601 -11.0004 0.00354302
4.51777 -10.149 -1.58815
4.06051 -9.10948 -1.4198
3.25893 -8.6789 -0.719736
2.58258 -9.10948 0.101946
2.42765 -10.149 0.56392
2.8849 -11.1885 0.395567
3.68648 -11.6191 -0.304493
4.36284 -11.1885 -1.12617
5.57235 -9.851 -0.56392
5.1151 -8.81148 -0.395567
4.31352 -8.3809 0.304493
3.63716 -8.81148 1.12617
3.48223 -9.851 1.58815
3.93949 -10.8905 1.4198
4.74107 -11.3211 0.719736
5.41742 -10.8905 -0.101946
8.51777 -10.149 -1.58815
8.13586 -9.20404 -1.46986
7.44365 -8.70124 -0.903433
6.76504 -8.87586 -0.153903
6.41756 -9.6462 0.428016
6.56379 -10.6518 0.570038
7.13531 -11.4221 0.205708
7.86471 -11.5968 -0.494498
8.41068 -11.094 -1.20295
9.57235 -9.851 -0.56392
9.19044 -8.90604 -0.445632
8.49824 -8.40323 0.120796
7.81963 -8.57785 0.870326
7.47214 -9.34819 1.45224
7.61837 -10.3538 1.59427
8.1899 -11.1241 1.22994
8.91929 -11.2988 0.52973
9.46527 -10.796 -0.178719
12.5178 -10.149 -1.58815
12.1925 -9.2849 -1.50468
11.5923 -8.75085 -1.04209
10.9465 -8.75085 -0.377061
10.5016 -9.2849 0.236379
10.4276 -10.149 0.56392
10.7529 -11.0131 0.480452
11.3531 -11.5471 0.0178584
11.999 -11.5472 -0.647167
12.4438 -11.0131 -1.26061
13.5724 -9.851 -0.56392
13.2471 -8.98689 -0.480452
12.6469 -8.45285 -0.0178584
12.001 -8.45285 0.647167
11.5562 -8.98689 1.26061
11.4822 -9.851 1.58815
11.8075 -10.7151 1.50468
12.4077 -11.2491 1.04209
13.0535 -11.2491 0.377061
13.4984 -10.7151 -0.236379
16.5178 -10.149 -1.58815
16.2363 -9.35421 -1.52958
15.7124 -8.81175 -1.14797
15.1124 -8.69387 -0.564487
14.6268 -9.03797 0.0356284
14.4098 -9.73483 0.461839
14.5302 -10.5632 0.578827
14.9499 -11.26 0.349448
15.5356 -11.6041 -0.15347
16.1013 -11.4863 -0.770256
16.4674 -10.9438 -1.30508
17.5724 -9.851 -0.56392
17.2909 -9.0562 -0.505352
16.767 -8.51375 -0.123746
16.167 -8.39586 0.459742
15.6814 -8.73997 1.05986
15.4643 -9.43682 1.48607
15.5848 -10.2652 1.60306
16.0045 -10.962 1.37368
16.5902 -11.3061 0.870758
17.1559 -11.1882 0.253973
17.522 -10.6458 -0.280855

CELLS 12 550
17
4
3
0
1
2
3
0
1
3
3
1
2
3
3
0
2
3
22
5
4
4
5
6
7
3
6
7
8
3
7
4
8
3
4
5
8
3
5
6
8
24
5
4
10
13
14
11
4
12
14
11
9
4
10
13
12
9
3
9
10
11
3
12
13
14
31
6
4
15
16
18
17
4
19
20
22
21
4
16
18
22
20
4
15
16
20
19
4
17
18
22
21
4
15
17
21
19
31
6
4
23
24
25
26
4
27
28
29
30
4
24
25
29
28
4
23
24
28
27
4
25
26
30
29
4
23
26
30
27
38
7
5
31
32
33
34
35
5
36
37
38
39
40
4
31
32
37
36
4
32
33
38
37
4
33
34
39
38
4
34
35
40
39
4
35
31
36
40
45
8
6
41
42
43
44
45
46
6
47
48
49
50
51
52
4
41
42
48
47
4
42
43
49
48
4
43
44
50
49
4
44
45
51
50
4
45
46
52
51
4
46
41
47
52
52
9
7
53
54
55
56
57
58
59
7
60
61
62
63
64
65
66
4
53
54
61
60
4
54
55
62
61
4
55
56
63
62
4
56
57
64
63
4
57
58
65
64
4
58
59
66
65
4
59
53
60
66
59
10
8
67
68
69
70
71
72
73
74
8
75
76
77
78
79
80
81
82
4
67
68
76
75
4
68
69
77
76
4
69
70
78
77
4
70
71
79
78
4
71
72
80
79
4
72
73
81
80
4
73
74
82
81
4
74
67
75
82
66
11
9
83
84
85
86
87
88
89
90
91
9
92
93
94
95
96
97
98
99
100
4
83
84
93
92
4
84
85
94
93
4
85
86
95
94
4
86
87
96
95
4
87
88
97
96
4
88
89
98
97
4
89
90
99
98
4
90
91
100
99
4
91
83
92
100
73
12
10
101
102
103
104
105
106
107
108
109
110
10
111
112
113
114
115
116
117
118
119
120
4
101
102
112
111
4
102
103
113
112
4
103
104
114
113
4
104
105
115
114
4
105
106
116
115
4
106
107
117
116
4
107
108
118
117
4
108
109
119
118
4
109
110
120
119
4
110
101
111
120
80
13
11
121
122
123
124
125
126
127
128
129
130
131
11
132
133
134
135
136
137
138
139
140
141
142
4
121
122
133
132
4
122
123
134
133
4
123
124
135
134
4
124
125
136
135
4
125
126
137
136
4
126
127
138
137
4
127
128
139
138
4
128
129
140
139
4
129
130
141
140
4
130
131
142
141
4
131
121
132
142

CELL_TYPES  12
42
42
42
42
42
42
42
42
42
42
42
42

CELL_DATA 12
SCALARS attribute int 1
LOOKUP_TABLE default
0
1
2
3
3
4
5
6
7
8
9
10

