--------------------------------------------------------------------------------
----- ECLIPSE Data File Generated From SKUA-GOCAD
----- Name of Exported SGrid: simple
----- Contact Paradigm for help or extension
-----       http://hub.paradigmgeo.com
--------------------------------------------------------------------------------

SPECGRID
      9  9  9  1  F  /

GRIDUNIT
'METRES'   /

MAPUNITS
'METRES'   /

MAPAXES
      -62.440000  -18.777919
      -62.440000  35.980000
      -7.682081  35.980000  /

COORD
0.002611 0.003369    -0.900000   0.002611 0.003369     0.000000 
6.086824 0.003369    -0.900000   6.086824 0.003369     0.000000 
12.171037 0.003369    -0.900000   12.171037 0.003369     0.000000 
18.255250 0.003369    -0.900000   18.255250 0.003369     0.000000 
24.339464 0.003369    -0.900000   24.339464 0.003369     0.000000 
30.423677 0.003369    -0.900000   30.423677 0.003369     0.000000 
36.507892 0.003369    -0.900000   36.507892 0.003369     0.000000 
42.592103 0.003369    -0.900000   42.592103 0.003369     0.000000 
48.676317 0.003369    -0.900000   48.676317 0.003369     0.000000 
54.760530 0.003369    -0.900000   54.760530 0.003369     0.000000 
0.002611 5.067364    -0.900000   0.002611 5.067364     0.000000 
6.086824 5.067364    -0.900000   6.086824 5.067364     0.000000 
12.171037 5.067364    -0.900000   12.171037 5.067364     0.000000 
18.255250 5.067364    -0.900000   18.255250 5.067364     0.000000 
24.339464 5.067364    -0.900000   24.339464 5.067364     0.000000 
30.423677 5.067364    -0.900000   30.423677 5.067364     0.000000 
36.507892 5.067364    -0.900000   36.507892 5.067364     0.000000 
42.592103 5.067364    -0.900000   42.592103 5.067364     0.000000 
48.676317 5.067364    -0.900000   48.676317 5.067364     0.000000 
54.760530 5.067364    -0.900000   54.760530 5.067364     0.000000 
0.002611 10.131361    -0.900000   0.002611 10.131361     0.000000 
6.086824 10.131361    -0.900000   6.086824 10.131361     0.000000 
12.171037 10.131361    -0.900000   12.171037 10.131361     0.000000 
18.255250 10.131361    -0.900000   18.255250 10.131361     0.000000 
24.339464 10.131361    -0.900000   24.339464 10.131361     0.000000 
30.423677 10.131361    -0.900000   30.423677 10.131361     0.000000 
36.507892 10.131361    -0.900000   36.507892 10.131361     0.000000 
42.592103 10.131361    -0.900000   42.592103 10.131361     0.000000 
48.676317 10.131361    -0.900000   48.676317 10.131361     0.000000 
54.760530 10.131361    -0.900000   54.760530 10.131361     0.000000 
0.002611 15.195359    -0.900000   0.002611 15.195359     0.000000 
6.086824 15.195359    -0.900000   6.086824 15.195359     0.000000 
12.171037 15.195359    -0.900000   12.171037 15.195359     0.000000 
18.255250 15.195359    -0.900000   18.255250 15.195359     0.000000 
24.339464 15.195359    -0.900000   24.339464 15.195359     0.000000 
30.423677 15.195359    -0.900000   30.423677 15.195359     0.000000 
36.507892 15.195359    -0.900000   36.507892 15.195359     0.000000 
42.592103 15.195359    -0.900000   42.592103 15.195359     0.000000 
48.676317 15.195359    -0.900000   48.676317 15.195359     0.000000 
54.760530 15.195359    -0.900000   54.760530 15.195359     0.000000 
0.002611 20.259354    -0.900000   0.002611 20.259354     0.000000 
6.086824 20.259354    -0.900000   6.086824 20.259354     0.000000 
12.171037 20.259354    -0.900000   12.171037 20.259354     0.000000 
18.255250 20.259354    -0.900000   18.255250 20.259354     0.000000 
24.339464 20.259354    -0.900000   24.339464 20.259354     0.000000 
30.423677 20.259354    -0.900000   30.423677 20.259354     0.000000 
36.507892 20.259354    -0.900000   36.507892 20.259354     0.000000 
42.592103 20.259354    -0.900000   42.592103 20.259354     0.000000 
48.676317 20.259354    -0.900000   48.676317 20.259354     0.000000 
54.760530 20.259354    -0.900000   54.760530 20.259354     0.000000 
0.002611 25.323351    -0.900000   0.002611 25.323351     0.000000 
6.086824 25.323351    -0.900000   6.086824 25.323351     0.000000 
12.171037 25.323351    -0.900000   12.171037 25.323351     0.000000 
18.255250 25.323351    -0.900000   18.255250 25.323351     0.000000 
24.339464 25.323351    -0.900000   24.339464 25.323351     0.000000 
30.423677 25.323351    -0.900000   30.423677 25.323351     0.000000 
36.507892 25.323351    -0.900000   36.507892 25.323351     0.000000 
42.592103 25.323351    -0.900000   42.592103 25.323351     0.000000 
48.676317 25.323351    -0.900000   48.676317 25.323351     0.000000 
54.760530 25.323351    -0.900000   54.760530 25.323351     0.000000 
0.002611 30.387347    -0.900000   0.002611 30.387347     0.000000 
6.086824 30.387347    -0.900000   6.086824 30.387347     0.000000 
12.171037 30.387347    -0.900000   12.171037 30.387347     0.000000 
18.255250 30.387347    -0.900000   18.255250 30.387347     0.000000 
24.339464 30.387347    -0.900000   24.339464 30.387347     0.000000 
30.423677 30.387347    -0.900000   30.423677 30.387347     0.000000 
36.507892 30.387347    -0.900000   36.507892 30.387347     0.000000 
42.592103 30.387347    -0.900000   42.592103 30.387347     0.000000 
48.676317 30.387347    -0.900000   48.676317 30.387347     0.000000 
54.760530 30.387347    -0.900000   54.760530 30.387347     0.000000 
0.002611 35.451343    -0.900000   0.002611 35.451343     0.000000 
6.086824 35.451343    -0.900000   6.086824 35.451343     0.000000 
12.171037 35.451343    -0.900000   12.171037 35.451343     0.000000 
18.255250 35.451343    -0.900000   18.255250 35.451343     0.000000 
24.339464 35.451343    -0.900000   24.339464 35.451343     0.000000 
30.423677 35.451343    -0.900000   30.423677 35.451343     0.000000 
36.507892 35.451343    -0.900000   36.507892 35.451343     0.000000 
42.592103 35.451343    -0.900000   42.592103 35.451343     0.000000 
48.676317 35.451343    -0.900000   48.676317 35.451343     0.000000 
54.760530 35.451343    -0.900000   54.760530 35.451343     0.000000 
0.002611 40.515339    -0.900000   0.002611 40.515339     0.000000 
6.086824 40.515339    -0.900000   6.086824 40.515339     0.000000 
12.171037 40.515339    -0.900000   12.171037 40.515339     0.000000 
18.255250 40.515339    -0.900000   18.255250 40.515339     0.000000 
24.339464 40.515339    -0.900000   24.339464 40.515339     0.000000 
30.423677 40.515339    -0.900000   30.423677 40.515339     0.000000 
36.507892 40.515339    -0.900000   36.507892 40.515339     0.000000 
42.592103 40.515339    -0.900000   42.592103 40.515339     0.000000 
48.676317 40.515339    -0.900000   48.676317 40.515339     0.000000 
54.760530 40.515339    -0.900000   54.760530 40.515339     0.000000 
0.002611 45.579335    -0.900000   0.002611 45.579335     0.000000 
6.086824 45.579335    -0.900000   6.086824 45.579335     0.000000 
12.171037 45.579335    -0.900000   12.171037 45.579335     0.000000 
18.255250 45.579335    -0.900000   18.255250 45.579335     0.000000 
24.339464 45.579335    -0.900000   24.339464 45.579335     0.000000 
30.423677 45.579335    -0.900000   30.423677 45.579335     0.000000 
36.507892 45.579335    -0.900000   36.507892 45.579335     0.000000 
42.592103 45.579335    -0.900000   42.592103 45.579335     0.000000 
48.676317 45.579335    -0.900000   48.676317 45.579335     0.000000 
54.760530 45.579335    -0.900000   54.760530 45.579335     0.000000 
/

ZCORN
   -0.900000    -0.900000    -0.900000    -0.900000    -0.900000    -0.900000 
   -0.900000    -0.900000    -0.900000    -0.900000    -0.900000    -0.900000 
   -0.900000    -0.900000    -0.900000    -0.900000    -0.900000    -0.900000 
   -0.900000    -0.900000    -0.900000    -0.900000    -0.900000    -0.900000 
   -0.900000    -0.900000    -0.900000    -0.900000    -0.900000    -0.900000 
   -0.900000    -0.900000    -0.900000    -0.900000    -0.900000    -0.900000 
   -0.900000    -0.900000    -0.900000    -0.900000    -0.900000    -0.900000 
   -0.900000    -0.900000    -0.900000    -0.900000    -0.900000    -0.900000 
   -0.900000    -0.900000    -0.900000    -0.900000    -0.900000    -0.900000 
   -0.900000    -0.900000    -0.900000    -0.900000    -0.900000    -0.900000 
   -0.900000    -0.900000    -0.900000    -0.900000    -0.900000    -0.900000 
   -0.900000    -0.900000    -0.900000    -0.900000    -0.900000    -0.900000 
   -0.900000    -0.900000    -0.900000    -0.900000    -0.900000    -0.900000 
   -0.900000    -0.900000    -0.900000    -0.900000    -0.900000    -0.900000 
   -0.900000    -0.900000    -0.900000    -0.900000    -0.900000    -0.900000 
   -0.900000    -0.900000    -0.900000    -0.900000    -0.900000    -0.900000 
   -0.900000    -0.900000    -0.900000    -0.900000    -0.900000    -0.900000 
   -0.900000    -0.900000    -0.900000    -0.900000    -0.900000    -0.900000 
   -0.900000    -0.900000    -0.900000    -0.900000    -0.900000    -0.900000 
   -0.900000    -0.900000    -0.900000    -0.900000    -0.900000    -0.900000 
   -0.900000    -0.900000    -0.900000    -0.900000    -0.900000    -0.900000 
   -0.900000    -0.900000    -0.900000    -0.900000    -0.900000    -0.900000 
   -0.900000    -0.900000    -0.900000    -0.900000    -0.900000    -0.900000 
   -0.900000    -0.900000    -0.900000    -0.900000    -0.900000    -0.900000 
   -0.900000    -0.900000    -0.900000    -0.900000    -0.900000    -0.900000 
   -0.900000    -0.900000    -0.900000    -0.900000    -0.900000    -0.900000 
   -0.900000    -0.900000    -0.900000    -0.900000    -0.900000    -0.900000 
   -0.900000    -0.900000    -0.900000    -0.900000    -0.900000    -0.900000 
   -0.900000    -0.900000    -0.900000    -0.900000    -0.900000    -0.900000 
   -0.900000    -0.900000    -0.900000    -0.900000    -0.900000    -0.900000 
   -0.900000    -0.900000    -0.900000    -0.900000    -0.900000    -0.900000 
   -0.900000    -0.900000    -0.900000    -0.900000    -0.900000    -0.900000 
   -0.900000    -0.900000    -0.900000    -0.900000    -0.900000    -0.900000 
   -0.900000    -0.900000    -0.900000    -0.900000    -0.900000    -0.900000 
   -0.900000    -0.900000    -0.900000    -0.900000    -0.900000    -0.900000 
   -0.900000    -0.900000    -0.900000    -0.900000    -0.900000    -0.900000 
   -0.900000    -0.900000    -0.900000    -0.900000    -0.900000    -0.900000 
   -0.900000    -0.900000    -0.900000    -0.900000    -0.900000    -0.900000 
   -0.900000    -0.900000    -0.900000    -0.900000    -0.900000    -0.900000 
   -0.900000    -0.900000    -0.900000    -0.900000    -0.900000    -0.900000 
   -0.900000    -0.900000    -0.900000    -0.900000    -0.900000    -0.900000 
   -0.900000    -0.900000    -0.900000    -0.900000    -0.900000    -0.900000 
   -0.900000    -0.900000    -0.900000    -0.900000    -0.900000    -0.900000 
   -0.900000    -0.900000    -0.900000    -0.900000    -0.900000    -0.900000 
   -0.900000    -0.900000    -0.900000    -0.900000    -0.900000    -0.900000 
   -0.900000    -0.900000    -0.900000    -0.900000    -0.900000    -0.900000 
   -0.900000    -0.900000    -0.900000    -0.900000    -0.900000    -0.900000 
   -0.900000    -0.900000    -0.900000    -0.900000    -0.900000    -0.900000 
   -0.900000    -0.900000    -0.900000    -0.900000    -0.900000    -0.900000 
   -0.900000    -0.900000    -0.900000    -0.900000    -0.900000    -0.900000 
   -0.900000    -0.900000    -0.900000    -0.900000    -0.900000    -0.900000 
   -0.900000    -0.900000    -0.900000    -0.900000    -0.900000    -0.900000 
   -0.900000    -0.900000    -0.900000    -0.900000    -0.900000    -0.900000 
   -0.900000    -0.900000    -0.900000    -0.900000    -0.900000    -0.900000 
   -0.800000    -0.800000    -0.800000    -0.800000    -0.800000    -0.800000 
   -0.800000    -0.800000    -0.800000    -0.800000    -0.800000    -0.800000 
   -0.800000    -0.800000    -0.800000    -0.800000    -0.800000    -0.800000 
   -0.800000    -0.800000    -0.800000    -0.800000    -0.800000    -0.800000 
   -0.800000    -0.800000    -0.800000    -0.800000    -0.800000    -0.800000 
   -0.800000    -0.800000    -0.800000    -0.800000    -0.800000    -0.800000 
   -0.800000    -0.800000    -0.800000    -0.800000    -0.800000    -0.800000 
   -0.800000    -0.800000    -0.800000    -0.800000    -0.800000    -0.800000 
   -0.800000    -0.800000    -0.800000    -0.800000    -0.800000    -0.800000 
   -0.800000    -0.800000    -0.800000    -0.800000    -0.800000    -0.800000 
   -0.800000    -0.800000    -0.800000    -0.800000    -0.800000    -0.800000 
   -0.800000    -0.800000    -0.800000    -0.800000    -0.800000    -0.800000 
   -0.800000    -0.800000    -0.800000    -0.800000    -0.800000    -0.800000 
   -0.800000    -0.800000    -0.800000    -0.800000    -0.800000    -0.800000 
   -0.800000    -0.800000    -0.800000    -0.800000    -0.800000    -0.800000 
   -0.800000    -0.800000    -0.800000    -0.800000    -0.800000    -0.800000 
   -0.800000    -0.800000    -0.800000    -0.800000    -0.800000    -0.800000 
   -0.800000    -0.800000    -0.800000    -0.800000    -0.800000    -0.800000 
   -0.800000    -0.800000    -0.800000    -0.800000    -0.800000    -0.800000 
   -0.800000    -0.800000    -0.800000    -0.800000    -0.800000    -0.800000 
   -0.800000    -0.800000    -0.800000    -0.800000    -0.800000    -0.800000 
   -0.800000    -0.800000    -0.800000    -0.800000    -0.800000    -0.800000 
   -0.800000    -0.800000    -0.800000    -0.800000    -0.800000    -0.800000 
   -0.800000    -0.800000    -0.800000    -0.800000    -0.800000    -0.800000 
   -0.800000    -0.800000    -0.800000    -0.800000    -0.800000    -0.800000 
   -0.800000    -0.800000    -0.800000    -0.800000    -0.800000    -0.800000 
   -0.800000    -0.800000    -0.800000    -0.800000    -0.800000    -0.800000 
   -0.800000    -0.800000    -0.800000    -0.800000    -0.800000    -0.800000 
   -0.800000    -0.800000    -0.800000    -0.800000    -0.800000    -0.800000 
   -0.800000    -0.800000    -0.800000    -0.800000    -0.800000    -0.800000 
   -0.800000    -0.800000    -0.800000    -0.800000    -0.800000    -0.800000 
   -0.800000    -0.800000    -0.800000    -0.800000    -0.800000    -0.800000 
   -0.800000    -0.800000    -0.800000    -0.800000    -0.800000    -0.800000 
   -0.800000    -0.800000    -0.800000    -0.800000    -0.800000    -0.800000 
   -0.800000    -0.800000    -0.800000    -0.800000    -0.800000    -0.800000 
   -0.800000    -0.800000    -0.800000    -0.800000    -0.800000    -0.800000 
   -0.800000    -0.800000    -0.800000    -0.800000    -0.800000    -0.800000 
   -0.800000    -0.800000    -0.800000    -0.800000    -0.800000    -0.800000 
   -0.800000    -0.800000    -0.800000    -0.800000    -0.800000    -0.800000 
   -0.800000    -0.800000    -0.800000    -0.800000    -0.800000    -0.800000 
   -0.800000    -0.800000    -0.800000    -0.800000    -0.800000    -0.800000 
   -0.800000    -0.800000    -0.800000    -0.800000    -0.800000    -0.800000 
   -0.800000    -0.800000    -0.800000    -0.800000    -0.800000    -0.800000 
   -0.800000    -0.800000    -0.800000    -0.800000    -0.800000    -0.800000 
   -0.800000    -0.800000    -0.800000    -0.800000    -0.800000    -0.800000 
   -0.800000    -0.800000    -0.800000    -0.800000    -0.800000    -0.800000 
   -0.800000    -0.800000    -0.800000    -0.800000    -0.800000    -0.800000 
   -0.800000    -0.800000    -0.800000    -0.800000    -0.800000    -0.800000 
   -0.800000    -0.800000    -0.800000    -0.800000    -0.800000    -0.800000 
   -0.800000    -0.800000    -0.800000    -0.800000    -0.800000    -0.800000 
   -0.800000    -0.800000    -0.800000    -0.800000    -0.800000    -0.800000 
   -0.800000    -0.800000    -0.800000    -0.800000    -0.800000    -0.800000 
   -0.800000    -0.800000    -0.800000    -0.800000    -0.800000    -0.800000 
   -0.800000    -0.800000    -0.800000    -0.800000    -0.800000    -0.800000 
   -0.800000    -0.800000    -0.800000    -0.800000    -0.800000    -0.800000 
   -0.800000    -0.800000    -0.800000    -0.800000    -0.800000    -0.800000 
   -0.800000    -0.800000    -0.800000    -0.800000    -0.800000    -0.800000 
   -0.800000    -0.800000    -0.800000    -0.800000    -0.800000    -0.800000 
   -0.800000    -0.800000    -0.800000    -0.800000    -0.800000    -0.800000 
   -0.800000    -0.800000    -0.800000    -0.800000    -0.800000    -0.800000 
   -0.800000    -0.800000    -0.800000    -0.800000    -0.800000    -0.800000 
   -0.800000    -0.800000    -0.800000    -0.800000    -0.800000    -0.800000 
   -0.800000    -0.800000    -0.800000    -0.800000    -0.800000    -0.800000 
   -0.800000    -0.800000    -0.800000    -0.800000    -0.800000    -0.800000 
   -0.800000    -0.800000    -0.800000    -0.800000    -0.800000    -0.800000 
   -0.800000    -0.800000    -0.800000    -0.800000    -0.800000    -0.800000 
   -0.800000    -0.800000    -0.800000    -0.800000    -0.800000    -0.800000 
   -0.800000    -0.800000    -0.800000    -0.800000    -0.800000    -0.800000 
   -0.800000    -0.800000    -0.800000    -0.800000    -0.800000    -0.800000 
   -0.800000    -0.800000    -0.800000    -0.800000    -0.800000    -0.800000 
   -0.800000    -0.800000    -0.800000    -0.800000    -0.800000    -0.800000 
   -0.800000    -0.800000    -0.800000    -0.800000    -0.800000    -0.800000 
   -0.800000    -0.800000    -0.800000    -0.800000    -0.800000    -0.800000 
   -0.800000    -0.800000    -0.800000    -0.800000    -0.800000    -0.800000 
   -0.800000    -0.800000    -0.800000    -0.800000    -0.800000    -0.800000 
   -0.800000    -0.800000    -0.800000    -0.800000    -0.800000    -0.800000 
   -0.800000    -0.800000    -0.800000    -0.800000    -0.800000    -0.800000 
   -0.800000    -0.800000    -0.800000    -0.800000    -0.800000    -0.800000 
   -0.800000    -0.800000    -0.800000    -0.800000    -0.800000    -0.800000 
   -0.800000    -0.800000    -0.800000    -0.800000    -0.800000    -0.800000 
   -0.800000    -0.800000    -0.800000    -0.800000    -0.800000    -0.800000 
   -0.800000    -0.800000    -0.800000    -0.800000    -0.800000    -0.800000 
   -0.800000    -0.800000    -0.800000    -0.800000    -0.800000    -0.800000 
   -0.800000    -0.800000    -0.800000    -0.800000    -0.800000    -0.800000 
   -0.800000    -0.800000    -0.800000    -0.800000    -0.800000    -0.800000 
   -0.800000    -0.800000    -0.800000    -0.800000    -0.800000    -0.800000 
   -0.800000    -0.800000    -0.800000    -0.800000    -0.800000    -0.800000 
   -0.800000    -0.800000    -0.800000    -0.800000    -0.800000    -0.800000 
   -0.800000    -0.800000    -0.800000    -0.800000    -0.800000    -0.800000 
   -0.800000    -0.800000    -0.800000    -0.800000    -0.800000    -0.800000 
   -0.800000    -0.800000    -0.800000    -0.800000    -0.800000    -0.800000 
   -0.800000    -0.800000    -0.800000    -0.800000    -0.800000    -0.800000 
   -0.800000    -0.800000    -0.800000    -0.800000    -0.800000    -0.800000 
   -0.800000    -0.800000    -0.800000    -0.800000    -0.800000    -0.800000 
   -0.800000    -0.800000    -0.800000    -0.800000    -0.800000    -0.800000 
   -0.800000    -0.800000    -0.800000    -0.800000    -0.800000    -0.800000 
   -0.800000    -0.800000    -0.800000    -0.800000    -0.800000    -0.800000 
   -0.800000    -0.800000    -0.800000    -0.800000    -0.800000    -0.800000 
   -0.800000    -0.800000    -0.800000    -0.800000    -0.800000    -0.800000 
   -0.800000    -0.800000    -0.800000    -0.800000    -0.800000    -0.800000 
   -0.800000    -0.800000    -0.800000    -0.800000    -0.800000    -0.800000 
   -0.800000    -0.800000    -0.800000    -0.800000    -0.800000    -0.800000 
   -0.800000    -0.800000    -0.800000    -0.800000    -0.800000    -0.800000 
   -0.800000    -0.800000    -0.800000    -0.800000    -0.800000    -0.800000 
   -0.800000    -0.800000    -0.800000    -0.800000    -0.800000    -0.800000 
   -0.800000    -0.800000    -0.800000    -0.800000    -0.800000    -0.800000 
   -0.800000    -0.800000    -0.800000    -0.800000    -0.800000    -0.800000 
   -0.800000    -0.800000    -0.800000    -0.800000    -0.800000    -0.800000 
   -0.700000    -0.700000    -0.700000    -0.700000    -0.700000    -0.700000 
   -0.700000    -0.700000    -0.700000    -0.700000    -0.700000    -0.700000 
   -0.700000    -0.700000    -0.700000    -0.700000    -0.700000    -0.700000 
   -0.700000    -0.700000    -0.700000    -0.700000    -0.700000    -0.700000 
   -0.700000    -0.700000    -0.700000    -0.700000    -0.700000    -0.700000 
   -0.700000    -0.700000    -0.700000    -0.700000    -0.700000    -0.700000 
   -0.700000    -0.700000    -0.700000    -0.700000    -0.700000    -0.700000 
   -0.700000    -0.700000    -0.700000    -0.700000    -0.700000    -0.700000 
   -0.700000    -0.700000    -0.700000    -0.700000    -0.700000    -0.700000 
   -0.700000    -0.700000    -0.700000    -0.700000    -0.700000    -0.700000 
   -0.700000    -0.700000    -0.700000    -0.700000    -0.700000    -0.700000 
   -0.700000    -0.700000    -0.700000    -0.700000    -0.700000    -0.700000 
   -0.700000    -0.700000    -0.700000    -0.700000    -0.700000    -0.700000 
   -0.700000    -0.700000    -0.700000    -0.700000    -0.700000    -0.700000 
   -0.700000    -0.700000    -0.700000    -0.700000    -0.700000    -0.700000 
   -0.700000    -0.700000    -0.700000    -0.700000    -0.700000    -0.700000 
   -0.700000    -0.700000    -0.700000    -0.700000    -0.700000    -0.700000 
   -0.700000    -0.700000    -0.700000    -0.700000    -0.700000    -0.700000 
   -0.700000    -0.700000    -0.700000    -0.700000    -0.700000    -0.700000 
   -0.700000    -0.700000    -0.700000    -0.700000    -0.700000    -0.700000 
   -0.700000    -0.700000    -0.700000    -0.700000    -0.700000    -0.700000 
   -0.700000    -0.700000    -0.700000    -0.700000    -0.700000    -0.700000 
   -0.700000    -0.700000    -0.700000    -0.700000    -0.700000    -0.700000 
   -0.700000    -0.700000    -0.700000    -0.700000    -0.700000    -0.700000 
   -0.700000    -0.700000    -0.700000    -0.700000    -0.700000    -0.700000 
   -0.700000    -0.700000    -0.700000    -0.700000    -0.700000    -0.700000 
   -0.700000    -0.700000    -0.700000    -0.700000    -0.700000    -0.700000 
   -0.700000    -0.700000    -0.700000    -0.700000    -0.700000    -0.700000 
   -0.700000    -0.700000    -0.700000    -0.700000    -0.700000    -0.700000 
   -0.700000    -0.700000    -0.700000    -0.700000    -0.700000    -0.700000 
   -0.700000    -0.700000    -0.700000    -0.700000    -0.700000    -0.700000 
   -0.700000    -0.700000    -0.700000    -0.700000    -0.700000    -0.700000 
   -0.700000    -0.700000    -0.700000    -0.700000    -0.700000    -0.700000 
   -0.700000    -0.700000    -0.700000    -0.700000    -0.700000    -0.700000 
   -0.700000    -0.700000    -0.700000    -0.700000    -0.700000    -0.700000 
   -0.700000    -0.700000    -0.700000    -0.700000    -0.700000    -0.700000 
   -0.700000    -0.700000    -0.700000    -0.700000    -0.700000    -0.700000 
   -0.700000    -0.700000    -0.700000    -0.700000    -0.700000    -0.700000 
   -0.700000    -0.700000    -0.700000    -0.700000    -0.700000    -0.700000 
   -0.700000    -0.700000    -0.700000    -0.700000    -0.700000    -0.700000 
   -0.700000    -0.700000    -0.700000    -0.700000    -0.700000    -0.700000 
   -0.700000    -0.700000    -0.700000    -0.700000    -0.700000    -0.700000 
   -0.700000    -0.700000    -0.700000    -0.700000    -0.700000    -0.700000 
   -0.700000    -0.700000    -0.700000    -0.700000    -0.700000    -0.700000 
   -0.700000    -0.700000    -0.700000    -0.700000    -0.700000    -0.700000 
   -0.700000    -0.700000    -0.700000    -0.700000    -0.700000    -0.700000 
   -0.700000    -0.700000    -0.700000    -0.700000    -0.700000    -0.700000 
   -0.700000    -0.700000    -0.700000    -0.700000    -0.700000    -0.700000 
   -0.700000    -0.700000    -0.700000    -0.700000    -0.700000    -0.700000 
   -0.700000    -0.700000    -0.700000    -0.700000    -0.700000    -0.700000 
   -0.700000    -0.700000    -0.700000    -0.700000    -0.700000    -0.700000 
   -0.700000    -0.700000    -0.700000    -0.700000    -0.700000    -0.700000 
   -0.700000    -0.700000    -0.700000    -0.700000    -0.700000    -0.700000 
   -0.700000    -0.700000    -0.700000    -0.700000    -0.700000    -0.700000 
   -0.700000    -0.700000    -0.700000    -0.700000    -0.700000    -0.700000 
   -0.700000    -0.700000    -0.700000    -0.700000    -0.700000    -0.700000 
   -0.700000    -0.700000    -0.700000    -0.700000    -0.700000    -0.700000 
   -0.700000    -0.700000    -0.700000    -0.700000    -0.700000    -0.700000 
   -0.700000    -0.700000    -0.700000    -0.700000    -0.700000    -0.700000 
   -0.700000    -0.700000    -0.700000    -0.700000    -0.700000    -0.700000 
   -0.700000    -0.700000    -0.700000    -0.700000    -0.700000    -0.700000 
   -0.700000    -0.700000    -0.700000    -0.700000    -0.700000    -0.700000 
   -0.700000    -0.700000    -0.700000    -0.700000    -0.700000    -0.700000 
   -0.700000    -0.700000    -0.700000    -0.700000    -0.700000    -0.700000 
   -0.700000    -0.700000    -0.700000    -0.700000    -0.700000    -0.700000 
   -0.700000    -0.700000    -0.700000    -0.700000    -0.700000    -0.700000 
   -0.700000    -0.700000    -0.700000    -0.700000    -0.700000    -0.700000 
   -0.700000    -0.700000    -0.700000    -0.700000    -0.700000    -0.700000 
   -0.700000    -0.700000    -0.700000    -0.700000    -0.700000    -0.700000 
   -0.700000    -0.700000    -0.700000    -0.700000    -0.700000    -0.700000 
   -0.700000    -0.700000    -0.700000    -0.700000    -0.700000    -0.700000 
   -0.700000    -0.700000    -0.700000    -0.700000    -0.700000    -0.700000 
   -0.700000    -0.700000    -0.700000    -0.700000    -0.700000    -0.700000 
   -0.700000    -0.700000    -0.700000    -0.700000    -0.700000    -0.700000 
   -0.700000    -0.700000    -0.700000    -0.700000    -0.700000    -0.700000 
   -0.700000    -0.700000    -0.700000    -0.700000    -0.700000    -0.700000 
   -0.700000    -0.700000    -0.700000    -0.700000    -0.700000    -0.700000 
   -0.700000    -0.700000    -0.700000    -0.700000    -0.700000    -0.700000 
   -0.700000    -0.700000    -0.700000    -0.700000    -0.700000    -0.700000 
   -0.700000    -0.700000    -0.700000    -0.700000    -0.700000    -0.700000 
   -0.700000    -0.700000    -0.700000    -0.700000    -0.700000    -0.700000 
   -0.700000    -0.700000    -0.700000    -0.700000    -0.700000    -0.700000 
   -0.700000    -0.700000    -0.700000    -0.700000    -0.700000    -0.700000 
   -0.700000    -0.700000    -0.700000    -0.700000    -0.700000    -0.700000 
   -0.700000    -0.700000    -0.700000    -0.700000    -0.700000    -0.700000 
   -0.700000    -0.700000    -0.700000    -0.700000    -0.700000    -0.700000 
   -0.700000    -0.700000    -0.700000    -0.700000    -0.700000    -0.700000 
   -0.700000    -0.700000    -0.700000    -0.700000    -0.700000    -0.700000 
   -0.700000    -0.700000    -0.700000    -0.700000    -0.700000    -0.700000 
   -0.700000    -0.700000    -0.700000    -0.700000    -0.700000    -0.700000 
   -0.700000    -0.700000    -0.700000    -0.700000    -0.700000    -0.700000 
   -0.700000    -0.700000    -0.700000    -0.700000    -0.700000    -0.700000 
   -0.700000    -0.700000    -0.700000    -0.700000    -0.700000    -0.700000 
   -0.700000    -0.700000    -0.700000    -0.700000    -0.700000    -0.700000 
   -0.700000    -0.700000    -0.700000    -0.700000    -0.700000    -0.700000 
   -0.700000    -0.700000    -0.700000    -0.700000    -0.700000    -0.700000 
   -0.700000    -0.700000    -0.700000    -0.700000    -0.700000    -0.700000 
   -0.700000    -0.700000    -0.700000    -0.700000    -0.700000    -0.700000 
   -0.700000    -0.700000    -0.700000    -0.700000    -0.700000    -0.700000 
   -0.700000    -0.700000    -0.700000    -0.700000    -0.700000    -0.700000 
   -0.700000    -0.700000    -0.700000    -0.700000    -0.700000    -0.700000 
   -0.700000    -0.700000    -0.700000    -0.700000    -0.700000    -0.700000 
   -0.700000    -0.700000    -0.700000    -0.700000    -0.700000    -0.700000 
   -0.700000    -0.700000    -0.700000    -0.700000    -0.700000    -0.700000 
   -0.700000    -0.700000    -0.700000    -0.700000    -0.700000    -0.700000 
   -0.700000    -0.700000    -0.700000    -0.700000    -0.700000    -0.700000 
   -0.700000    -0.700000    -0.700000    -0.700000    -0.700000    -0.700000 
   -0.700000    -0.700000    -0.700000    -0.700000    -0.700000    -0.700000 
   -0.600000    -0.600000    -0.600000    -0.600000    -0.600000    -0.600000 
   -0.600000    -0.600000    -0.600000    -0.600000    -0.600000    -0.600000 
   -0.600000    -0.600000    -0.600000    -0.600000    -0.600000    -0.600000 
   -0.600000    -0.600000    -0.600000    -0.600000    -0.600000    -0.600000 
   -0.600000    -0.600000    -0.600000    -0.600000    -0.600000    -0.600000 
   -0.600000    -0.600000    -0.600000    -0.600000    -0.600000    -0.600000 
   -0.600000    -0.600000    -0.600000    -0.600000    -0.600000    -0.600000 
   -0.600000    -0.600000    -0.600000    -0.600000    -0.600000    -0.600000 
   -0.600000    -0.600000    -0.600000    -0.600000    -0.600000    -0.600000 
   -0.600000    -0.600000    -0.600000    -0.600000    -0.600000    -0.600000 
   -0.600000    -0.600000    -0.600000    -0.600000    -0.600000    -0.600000 
   -0.600000    -0.600000    -0.600000    -0.600000    -0.600000    -0.600000 
   -0.600000    -0.600000    -0.600000    -0.600000    -0.600000    -0.600000 
   -0.600000    -0.600000    -0.600000    -0.600000    -0.600000    -0.600000 
   -0.600000    -0.600000    -0.600000    -0.600000    -0.600000    -0.600000 
   -0.600000    -0.600000    -0.600000    -0.600000    -0.600000    -0.600000 