<?xml version="1.0"?>
<VTKFile type="UnstructuredGrid" version="0.1" byte_order="LittleEndian" header_type="UInt32" compressor="vtkZLibDataCompressor">
  <UnstructuredGrid>
    <Piece NumberOfPoints="602" NumberOfCells="600">
      <PointData>
      </PointData>
      <CellData>
        <DataArray type="Float64" Name="Partition" format="ascii" RangeMin="0" RangeMax="0">
          0 0 0 0 0 0
          0 0 0 0 0 0
          0 0 0 0 0 0
          0 0 0 0 0 0
          0 0 0 0 0 0
          0 0 0 0 0 0
          0 0 0 0 0 0
          0 0 0 0 0 0
          0 0 0 0 0 0
          0 0 0 0 0 0
          0 0 0 0 0 0
          0 0 0 0 0 0
          0 0 0 0 0 0
          0 0 0 0 0 0
          0 0 0 0 0 0
          0 0 0 0 0 0
          0 0 0 0 0 0
          0 0 0 0 0 0
          0 0 0 0 0 0
          0 0 0 0 0 0
          0 0 0 0 0 0
          0 0 0 0 0 0
          0 0 0 0 0 0
          0 0 0 0 0 0
          0 0 0 0 0 0
          0 0 0 0 0 0
          0 0 0 0 0 0
          0 0 0 0 0 0
          0 0 0 0 0 0
          0 0 0 0 0 0
          0 0 0 0 0 0
          0 0 0 0 0 0
          0 0 0 0 0 0
          0 0 0 0 0 0
          0 0 0 0 0 0
          0 0 0 0 0 0
          0 0 0 0 0 0
          0 0 0 0 0 0
          0 0 0 0 0 0
          0 0 0 0 0 0
          0 0 0 0 0 0
          0 0 0 0 0 0
          0 0 0 0 0 0
          0 0 0 0 0 0
          0 0 0 0 0 0
          0 0 0 0 0 0
          0 0 0 0 0 0
          0 0 0 0 0 0
          0 0 0 0 0 0
          0 0 0 0 0 0
          0 0 0 0 0 0
          0 0 0 0 0 0
          0 0 0 0 0 0
          0 0 0 0 0 0
          0 0 0 0 0 0
          0 0 0 0 0 0
          0 0 0 0 0 0
          0 0 0 0 0 0
          0 0 0 0 0 0
          0 0 0 0 0 0
          0 0 0 0 0 0
          0 0 0 0 0 0
          0 0 0 0 0 0
          0 0 0 0 0 0
          0 0 0 0 0 0
          0 0 0 0 0 0
          0 0 0 0 0 0
          0 0 0 0 0 0
          0 0 0 0 0 0
          0 0 0 0 0 0
          0 0 0 0 0 0
          0 0 0 0 0 0
          0 0 0 0 0 0
          0 0 0 0 0 0
          0 0 0 0 0 0
          0 0 0 0 0 0
          0 0 0 0 0 0
          0 0 0 0 0 0
          0 0 0 0 0 0
          0 0 0 0 0 0
          0 0 0 0 0 0
          0 0 0 0 0 0
          0 0 0 0 0 0
          0 0 0 0 0 0
          0 0 0 0 0 0
          0 0 0 0 0 0
          0 0 0 0 0 0
          0 0 0 0 0 0
          0 0 0 0 0 0
          0 0 0 0 0 0
          0 0 0 0 0 0
          0 0 0 0 0 0
          0 0 0 0 0 0
          0 0 0 0 0 0
          0 0 0 0 0 0
          0 0 0 0 0 0
          0 0 0 0 0 0
          0 0 0 0 0 0
          0 0 0 0 0 0
          0 0 0 0 0 0
        </DataArray>
        <DataArray type="Float64" Name="globalIndex" format="ascii" RangeMin="0" RangeMax="599">
          0 1 2 3 4 5
          6 7 8 9 10 11
          12 13 14 15 16 17
          18 19 20 21 22 23
          24 25 26 27 28 29
          30 31 32 33 34 35
          36 37 38 39 40 41
          42 43 44 45 46 47
          48 49 50 51 52 53
          54 55 56 57 58 59
          60 61 62 63 64 65
          66 67 68 69 70 71
          72 73 74 75 76 77
          78 79 80 81 82 83
          84 85 86 87 88 89
          90 91 92 93 94 95
          96 97 98 99 100 101
          102 103 104 105 106 107
          108 109 110 111 112 113
          114 115 116 117 118 119
          120 121 122 123 124 125
          126 127 128 129 130 131
          132 133 134 135 136 137
          138 139 140 141 142 143
          144 145 146 147 148 149
          150 151 152 153 154 155
          156 157 158 159 160 161
          162 163 164 165 166 167
          168 169 170 171 172 173
          174 175 176 177 178 179
          180 181 182 183 184 185
          186 187 188 189 190 191
          192 193 194 195 196 197
          198 199 200 201 202 203
          204 205 206 207 208 209
          210 211 212 213 214 215
          216 217 218 219 220 221
          222 223 224 225 226 227
          228 229 230 231 232 233
          234 235 236 237 238 239
          240 241 242 243 244 245
          246 247 248 249 250 251
          252 253 254 255 256 257
          258 259 260 261 262 263
          264 265 266 267 268 269
          270 271 272 273 274 275
          276 277 278 279 280 281
          282 283 284 285 286 287
          288 289 290 291 292 293
          294 295 296 297 298 299
          300 301 302 303 304 305
          306 307 308 309 310 311
          312 313 314 315 316 317
          318 319 320 321 322 323
          324 325 326 327 328 329
          330 331 332 333 334 335
          336 337 338 339 340 341
          342 343 344 345 346 347
          348 349 350 351 352 353
          354 355 356 357 358 359
          360 361 362 363 364 365
          366 367 368 369 370 371
          372 373 374 375 376 377
          378 379 380 381 382 383
          384 385 386 387 388 389
          390 391 392 393 394 395
          396 397 398 399 400 401
          402 403 404 405 406 407
          408 409 410 411 412 413
          414 415 416 417 418 419
          420 421 422 423 424 425
          426 427 428 429 430 431
          432 433 434 435 436 437
          438 439 440 441 442 443
          444 445 446 447 448 449
          450 451 452 453 454 455
          456 457 458 459 460 461
          462 463 464 465 466 467
          468 469 470 471 472 473
          474 475 476 477 478 479
          480 481 482 483 484 485
          486 487 488 489 490 491
          492 493 494 495 496 497
          498 499 500 501 502 503
          504 505 506 507 508 509
          510 511 512 513 514 515
          516 517 518 519 520 521
          522 523 524 525 526 527
          528 529 530 531 532 533
          534 535 536 537 538 539
          540 541 542 543 544 545
          546 547 548 549 550 551
          552 553 554 555 556 557
          558 559 560 561 562 563
          564 565 566 567 568 569
          570 571 572 573 574 575
          576 577 578 579 580 581
          582 583 584 585 586 587
          588 589 590 591 592 593
          594 595 596 597 598 599
        </DataArray>
      </CellData>
      <Points>
        <DataArray type="Float32" Name="Points" NumberOfComponents="3" format="ascii" RangeMin="0" RangeMax="17.320508076">
          10 0 9 6 10 10
          5 10 10 0 0 0
          10 0 0 10 10 0
          0 10 0 0 0 10
          4 10 10 10 0 10
          10 10 10 0 10 10
          1 0 0 10 1 0
          2 0 0 3 0 0
          10 7 0 10 8 0
          4 0 0 5 0 0
          6 0 0 7 0 0
          8 0 0 9 0 0
          2 10 0 1 10 0
          0 9 0 10 2 0
          10 3 0 10 4 0
          10 5 0 10 6 0
          4 0 10 5 0 10
          6 0 10 7 0 10
          8 0 10 10 9 0
          9 10 0 8 10 0
          7 10 0 6 10 0
          5 10 0 4 10 0
          3 10 0 3 10 10
          2 10 10 1 10 10
          0 9 10 0 8 10
          0 7 10 0 6 10
          0 8 0 0 7 0
          0 6 0 0 5 0
          0 4 0 0 3 0
          0 2 0 0 1 0
          1 0 10 2 0 10
          3 0 10 10 10 1
          10 10 2 10 10 3
          10 10 4 10 10 5
          10 10 6 10 10 7
          10 10 8 10 10 9
          9 0 10 10 1 10
          10 2 10 10 3 10
          10 4 10 10 5 10
          10 6 10 10 7 10
          10 8 10 10 9 10
          9 10 10 8 10 10
          7 10 10 5 2 0
          6 2 0 7 2 0
          8 2 0 9 2 0
          1 3 0 2 3 0
          3 3 0 4 3 0
          5 3 0 6 3 0
          7 3 0 8 3 0
          0 5 10 0 4 10
          0 3 10 0 2 10
          0 1 10 0 0 1
          0 0 2 0 0 3
          0 0 4 0 0 5
          0 0 6 0 0 7
          0 0 8 0 0 9
          10 0 1 10 0 2
          10 0 3 10 0 4
          10 0 5 10 0 6
          10 0 7 10 0 8
          3 1 10 4 1 10
          5 1 10 6 1 10
          7 1 10 8 1 10
          9 1 10 1 2 10
          2 2 10 3 2 10
          4 2 10 5 2 10
          6 2 10 7 2 10
          8 2 10 9 2 10
          1 3 10 2 3 10
          3 3 10 4 3 10
          0 10 1 0 10 2
          0 10 3 0 10 4
          0 10 5 0 10 6
          0 10 7 0 10 8
          0 10 9 1 1 0
          2 1 0 3 1 0
          4 1 0 5 1 0
          6 1 0 7 1 0
          8 1 0 9 1 0
          1 2 0 2 2 0
          3 2 0 4 2 0
          7 7 10 8 7 10
          9 7 10 1 8 10
          2 8 10 3 8 10
          4 8 10 5 8 10
          6 8 10 7 8 10
          8 8 10 9 8 10
          1 9 10 2 9 10
          3 9 10 4 9 10
          5 9 10 6 9 10
          7 9 10 8 9 10
          9 9 10 1 0 1
          2 0 1 3 0 1
          4 0 1 5 0 1
          9 3 0 1 4 0
          2 4 0 3 4 0
          4 4 0 5 4 0
          6 4 0 7 4 0
          8 4 0 9 4 0
          1 5 0 2 5 0
          3 5 0 4 5 0
          5 5 0 6 5 0
          7 5 0 8 5 0
          9 5 0 1 6 0
          2 6 0 3 6 0
          4 6 0 5 6 0
          6 6 0 7 6 0
          8 6 0 9 6 0
          1 7 0 2 7 0
          3 7 0 4 7 0
          5 7 0 6 7 0
          7 7 0 8 7 0
          9 7 0 1 8 0
          2 8 0 3 8 0
          4 8 0 5 8 0
          6 8 0 7 8 0
          8 8 0 9 8 0
          1 9 0 2 9 0
          3 9 0 4 9 0
          5 9 0 6 9 0
          7 9 0 8 9 0
          9 9 0 1 1 10
          2 1 10 6 10 6
          7 10 6 8 10 6
          9 10 6 1 10 7
          2 10 7 3 10 7
          4 10 7 5 10 7
          6 10 7 7 10 7
          8 10 7 9 10 7
          1 10 8 2 10 8
          3 10 8 4 10 8
          5 10 8 6 10 8
          7 10 8 8 10 8
          9 10 8 1 10 9
          2 10 9 3 10 9
          4 10 9 5 10 9
          6 10 9 7 10 9
          8 10 9 9 10 9
          0 1 1 0 2 1
          0 3 1 0 4 1
          0 5 1 0 6 1
          0 7 1 0 8 1
          0 9 1 0 1 2
          5 3 10 6 3 10
          7 3 10 8 3 10
          9 3 10 1 4 10
          2 4 10 3 4 10
          4 4 10 5 4 10
          6 4 10 7 4 10
          8 4 10 9 4 10
          1 5 10 2 5 10
          3 5 10 4 5 10
          5 5 10 6 5 10
          7 5 10 8 5 10
          9 5 10 1 6 10
          2 6 10 3 6 10
          4 6 10 5 6 10
          6 6 10 7 6 10
          8 6 10 9 6 10
          1 7 10 2 7 10
          3 7 10 4 7 10
          5 7 10 6 7 10
          9 0 2 0 2 9
          0 3 9 0 4 9
          0 5 9 0 6 9
          0 7 9 0 8 9
          0 9 9 10 1 1
          10 2 1 10 3 1
          10 4 1 10 5 1
          10 6 1 10 7 1
          10 8 1 10 9 1
          10 1 2 10 2 2
          10 3 2 10 4 2
          10 5 2 10 6 2
          10 7 2 10 8 2
          10 9 2 10 1 3
          10 2 3 10 3 3
          10 4 3 10 5 3
          10 6 3 10 7 3
          10 8 3 10 9 3
          10 1 4 10 2 4
          10 3 4 10 4 4
          10 5 4 10 6 4
          10 7 4 10 8 4
          10 9 4 10 1 5
          10 2 5 10 3 5
          10 4 5 10 5 5
          10 6 5 10 7 5
          6 0 1 7 0 1
          8 0 1 9 0 1
          1 0 2 2 0 2
          3 0 2 4 0 2
          5 0 2 6 0 2
          7 0 2 8 0 2
          1 0 3 2 0 3
          3 0 3 4 0 3
          5 0 3 6 0 3
          7 0 3 8 0 3
          9 0 3 1 0 4
          2 0 4 3 0 4
          4 0 4 5 0 4
          6 0 4 7 0 4
          8 0 4 9 0 4
          1 0 5 2 0 5
          3 0 5 4 0 5
          5 0 5 6 0 5
          7 0 5 8 0 5
          9 0 5 1 0 6
          2 0 6 3 0 6
          4 0 6 5 0 6
          6 0 6 7 0 6
          8 0 6 9 0 6
          1 0 7 2 0 7
          3 0 7 4 0 7
          5 0 7 6 0 7
          7 0 7 8 0 7
          9 0 7 1 0 8
          2 0 8 3 0 8
          4 0 8 5 0 8
          6 0 8 7 0 8
          8 0 8 9 0 8
          1 0 9 2 0 9
          3 0 9 4 0 9
          5 0 9 6 0 9
          7 0 9 8 0 9
          9 0 9 1 10 1
          2 10 1 3 10 1
          4 10 1 5 10 1
          6 10 1 7 10 1
          8 10 1 9 10 1
          1 10 2 2 10 2
          3 10 2 4 10 2
          5 10 2 6 10 2
          7 10 2 8 10 2
          9 10 2 1 10 3
          2 10 3 3 10 3
          4 10 3 5 10 3
          6 10 3 7 10 3
          8 10 3 9 10 3
          1 10 4 2 10 4
          3 10 4 4 10 4
          5 10 4 6 10 4
          7 10 4 8 10 4
          9 10 4 1 10 5
          2 10 5 3 10 5
          4 10 5 5 10 5
          6 10 5 7 10 5
          8 10 5 9 10 5
          1 10 6 2 10 6
          3 10 6 4 10 6
          5 10 6 0 2 2
          0 3 2 0 4 2
          0 5 2 0 6 2
          0 7 2 0 8 2
          0 9 2 0 1 3
          0 2 3 0 3 3
          0 4 3 0 5 3
          0 6 3 0 7 3
          0 8 3 0 9 3
          0 1 4 0 2 4
          0 3 4 0 4 4
          0 5 4 0 6 4
          0 7 4 0 8 4
          0 9 4 0 1 5
          0 2 5 0 3 5
          0 4 5 0 5 5
          0 6 5 0 7 5
          0 8 5 0 9 5
          0 1 6 0 2 6
          0 3 6 0 4 6
          0 5 6 0 6 6
          0 7 6 0 8 6
          0 9 6 0 1 7
          0 2 7 0 3 7
          0 4 7 0 5 7
          0 6 7 0 7 7
          0 8 7 0 9 7
          0 1 8 0 2 8
          0 3 8 0 4 8
          0 5 8 0 6 8
          0 7 8 0 8 8
          0 9 8 0 1 9
          10 8 5 10 9 5
          10 1 6 10 2 6
          10 3 6 10 4 6
          10 5 6 10 6 6
          10 7 6 10 8 6
          10 9 6 10 1 7
          10 2 7 10 3 7
          10 4 7 10 5 7
          10 6 7 10 7 7
          10 8 7 10 9 7
          10 1 8 10 2 8
          10 3 8 10 4 8
          10 5 8 10 6 8
          10 7 8 10 8 8
          10 9 8 10 1 9
          10 2 9 10 3 9
          10 4 9 10 5 9
          10 6 9 10 7 9
          10 8 9 10 9 9
        </DataArray>
      </Points>
      <Cells>
        <DataArray type="Int64" Name="connectivity" format="ascii" RangeMin="0" RangeMax="601">
          3 12 149 59 12 14
          150 149 14 15 151 150
          15 18 152 151 18 19
          153 152 19 20 154 153
          20 21 155 154 21 22
          156 155 22 23 157 156
          23 4 13 157 59 149
          158 58 149 150 159 158
          150 151 160 159 151 152
          161 160 152 153 85 161
          153 154 86 85 154 155
          87 86 155 156 88 87
          156 157 89 88 157 13
          27 89 58 158 90 57
          158 159 91 90 159 160
          92 91 160 161 93 92
          161 85 94 93 85 86
          95 94 86 87 96 95
          87 88 97 96 88 89
          188 97 89 27 28 188
          57 90 189 56 90 91
          190 189 91 92 191 190
          92 93 192 191 93 94
          193 192 94 95 194 193
          95 96 195 194 96 97
          196 195 97 188 197 196
          188 28 29 197 56 189
          198 55 189 190 199 198
          190 191 200 199 191 192
          201 200 192 193 202 201
          193 194 203 202 194 195
          204 203 195 196 205 204
          196 197 206 205 197 29
          30 206 55 198 207 54
          198 199 208 207 199 200
          209 208 200 201 210 209
          201 202 211 210 202 203
          212 211 203 204 213 212
          204 205 214 213 205 206
          215 214 206 30 31 215
          54 207 216 53 207 208
          217 216 208 209 218 217
          209 210 219 218 210 211
          220 219 211 212 221 220
          212 213 222 221 213 214
          223 222 214 215 224 223
          215 31 16 224 53 216
          225 52 216 217 226 225
          217 218 227 226 218 219
          228 227 219 220 229 228
          220 221 230 229 221 222
          231 230 222 223 232 231
          223 224 233 232 224 16
          17 233 52 225 234 26
          225 226 235 234 226 227
          236 235 227 228 237 236
          228 229 238 237 229 230
          239 238 230 231 240 239
          231 232 241 240 232 233
          242 241 233 17 37 242
          26 234 25 6 234 235
          24 25 235 236 44 24
          236 237 43 44 237 238
          42 43 238 239 41 42
          239 240 40 41 240 241
          39 40 241 242 38 39
          242 37 5 38 7 60
          243 102 60 61 244 243
          61 62 120 244 62 32
          121 120 32 33 122 121
          33 34 123 122 34 35
          124 123 35 36 125 124
          36 72 126 125 72 9
          73 126 102 243 127 101
          243 244 128 127 244 120
          129 128 120 121 130 129
          121 122 131 130 122 123
          132 131 123 124 133 132
          124 125 134 133 125 126
          135 134 126 73 74 135
          101 127 136 100 127 128
          137 136 128 129 138 137
          129 130 139 138 130 131
          286 139 131 132 287 286
          132 133 288 287 133 134
          289 288 134 135 290 289
          135 74 75 290 100 136
          291 99 136 137 292 291
          137 138 293 292 138 139
          294 293 139 286 295 294
          286 287 296 295 287 288
          297 296 288 289 298 297
          289 290 299 298 290 75
          76 299 99 291 300 98
          291 292 301 300 292 293
          302 301 293 294 303 302
          294 295 304 303 295 296
          305 304 296 297 306 305
          297 298 307 306 298 299
          308 307 299 76 77 308
          98 300 309 51 300 301
          310 309 301 302 311 310
          302 303 312 311 303 304
          313 312 304 305 314 313
          305 306 315 314 306 307
          316 315 307 308 317 316
          308 77 78 317 51 309
          318 50 309 310 319 318
          310 311 320 319 311 312
          321 320 312 313 322 321
          313 314 323 322 314 315
          162 323 315 316 163 162
          316 317 164 163 317 78
          79 164 50 318 165 49
          318 319 166 165 319 320
          167 166 320 321 168 167
          321 322 169 168 322 323
          170 169 323 162 171 170
          162 163 172 171 163 164
          173 172 164 79 80 173
          49 165 174 48 165 166
          175 174 166 167 176 175
          167 168 177 176 168 169
          178 177 169 170 179 178
          170 171 180 179 171 172
          181 180 172 173 182 181
          173 80 81 182 48 174
          47 11 174 175 46 47
          175 176 45 46 176 177
          8 45 177 178 2 8
          178 179 1 2 179 180
          84 1 180 181 83 84
          181 182 82 83 182 81
          10 82 3 12 183 103
          12 14 184 183 14 15
          185 184 15 18 186 185
          18 19 187 186 19 20
          376 187 20 21 377 376
          21 22 378 377 22 23
          379 378 23 4 112 379
          103 183 380 104 183 184
          381 380 184 185 382 381
          185 186 383 382 186 187
          384 383 187 376 385 384
          376 377 386 385 377 378
          387 386 378 379 324 387
          379 112 113 324 104 380
          388 105 380 381 389 388
          381 382 390 389 382 383
          391 390 383 384 392 391
          384 385 393 392 385 386
          394 393 386 387 395 394
          387 324 396 395 324 113
          114 396 105 388 397 106
          388 389 398 397 389 390
          399 398 390 391 400 399
          391 392 401 400 392 393
          402 401 393 394 403 402
          394 395 404 403 395 396
          405 404 396 114 115 405
          106 397 406 107 397 398
          407 406 398 399 408 407
          399 400 409 408 400 401
          410 409 401 402 411 410
          402 403 412 411 403 404
          413 412 404 405 414 413
          405 115 116 414 107 406
          415 108 406 407 416 415
          407 408 417 416 408 409
          418 417 409 410 419 418
          410 411 420 419 411 412
          421 420 412 413 422 421
          413 414 423 422 414 116
          117 423 108 415 424 109
          415 416 425 424 416 417
          426 425 417 418 427 426
          418 419 428 427 419 420
          429 428 420 421 430 429
          421 422 431 430 422 423
          432 431 423 117 118 432
          109 424 433 110 424 425
          434 433 425 426 435 434
          426 427 436 435 427 428
          437 436 428 429 438 437
          429 430 439 438 430 431
          440 439 431 432 441 440
          432 118 119 441 110 433
          442 111 433 434 443 442
          434 435 444 443 435 436
          445 444 436 437 446 445
          437 438 447 446 438 439
          448 447 439 440 449 448
          440 441 450 449 441 119
          0 450 111 442 60 7
          442 443 61 60 443 444
          62 61 444 445 32 62
          445 446 33 32 446 447
          34 33 447 448 35 34
          448 449 36 35 449 450
          72 36 450 0 9 72
          6 25 451 140 25 24
          452 451 24 44 453 452
          44 43 454 453 43 42
          455 454 42 41 456 455
          41 40 457 456 40 39
          458 457 39 38 459 458
          38 5 63 459 140 451
          460 141 451 452 461 460
          452 453 462 461 453 454
          463 462 454 455 464 463
          455 456 465 464 456 457
          466 465 457 458 467 466
          458 459 468 467 459 63
          64 468 141 460 469 142
          460 461 470 469 461 462
          471 470 462 463 472 471
          463 464 473 472 464 465
          474 473 465 466 475 474
          466 467 476 475 467 468
          477 476 468 64 65 477
          142 469 478 143 469 470
          479 478 470 471 480 479
          471 472 481 480 472 473
          482 481 473 474 483 482
          474 475 484 483 475 476
          485 484 476 477 486 485
          477 65 66 486 143 478
          487 144 478 479 488 487
          479 480 489 488 480 481
          490 489 481 482 491 490
          482 483 492 491 483 484
          493 492 484 485 494 493
          485 486 495 494 486 66
          67 495 144 487 496 145
          487 488 497 496 488 489
          498 497 489 490 499 498
          490 491 500 499 491 492
          245 500 492 493 246 245
          493 494 247 246 494 495
          248 247 495 67 68 248
          145 496 249 146 496 497
          250 249 497 498 251 250
          498 499 252 251 499 500
          253 252 500 245 254 253
          245 246 255 254 246 247
          256 255 247 248 257 256
          248 68 69 257 146 249
          258 147 249 250 259 258
          250 251 260 259 251 252
          261 260 252 253 262 261
          253 254 263 262 254 255
          264 263 255 256 265 264
          256 257 266 265 257 69
          70 266 147 258 267 148
          258 259 268 267 259 260
          269 268 260 261 270 269
          261 262 271 270 262 263
          272 271 263 264 273 272
          264 265 274 273 265 266
          275 274 266 70 71 275
          148 267 47 11 267 268
          46 47 268 269 45 46
          269 270 8 45 270 271
          2 8 271 272 1 2
          272 273 84 1 273 274
          83 84 274 275 82 83
          275 71 10 82 3 59
          276 103 59 58 277 276
          58 57 278 277 57 56
          279 278 56 55 280 279
          55 54 281 280 54 53
          282 281 53 52 283 282
          52 26 284 283 26 6
          140 284 103 276 285 104
          276 277 501 285 277 278
          502 501 278 279 503 502
          279 280 504 503 280 281
          505 504 281 282 506 505
          282 283 507 506 283 284
          508 507 284 140 141 508
          104 285 509 105 285 501
          510 509 501 502 511 510
          502 503 512 511 503 504
          513 512 504 505 514 513
          505 506 515 514 506 507
          516 515 507 508 517 516
          508 141 142 517 105 509
          518 106 509 510 519 518
          510 511 520 519 511 512
          521 520 512 513 522 521
          513 514 523 522 514 515
          524 523 515 516 525 524
          516 517 526 525 517 142
          143 526 106 518 527 107
          518 519 528 527 519 520
          529 528 520 521 530 529
          521 522 531 530 522 523
          532 531 523 524 533 532
          524 525 534 533 525 526
          535 534 526 143 144 535
          107 527 536 108 527 528
          537 536 528 529 538 537
          529 530 539 538 530 531
          540 539 531 532 541 540
          532 533 542 541 533 534
          543 542 534 535 544 543
          535 144 145 544 108 536
          545 109 536 537 546 545
          537 538 547 546 538 539
          548 547 539 540 549 548
          540 541 550 549 541 542
          551 550 542 543 552 551
          543 544 553 552 544 145
          146 553 109 545 554 110
          545 546 555 554 546 547
          556 555 547 548 557 556
          548 549 558 557 549 550
          559 558 550 551 560 559
          551 552 561 560 552 553
          562 561 553 146 147 562
          110 554 563 111 554 555
          325 563 555 556 326 325
          556 557 327 326 557 558
          328 327 558 559 329 328
          559 560 330 329 560 561
          331 330 561 562 332 331
          562 147 148 332 111 563
          102 7 563 325 101 102
          325 326 100 101 326 327
          99 100 327 328 98 99
          328 329 51 98 329 330
          50 51 330 331 49 50
          331 332 48 49 332 148
          11 48 4 13 333 112
          13 27 334 333 27 28
          335 334 28 29 336 335
          29 30 337 336 30 31
          338 337 31 16 339 338
          16 17 340 339 17 37
          341 340 37 5 63 341
          112 333 342 113 333 334
          343 342 334 335 344 343
          335 336 345 344 336 337
          346 345 337 338 347 346
          338 339 348 347 339 340
          349 348 340 341 350 349
          341 63 64 350 113 342
          351 114 342 343 352 351
          343 344 353 352 344 345
          354 353 345 346 355 354
          346 347 356 355 347 348
          357 356 348 349 358 357
          349 350 359 358 350 64
          65 359 114 351 360 115
          351 352 361 360 352 353
          362 361 353 354 363 362
          354 355 364 363 355 356
          365 364 356 357 366 365
          357 358 367 366 358 359
          368 367 359 65 66 368
          115 360 369 116 360 361
          370 369 361 362 371 370
          362 363 372 371 363 364
          373 372 364 365 374 373
          365 366 375 374 366 367
          564 375 367 368 565 564
          368 66 67 565 116 369
          566 117 369 370 567 566
          370 371 568 567 371 372
          569 568 372 373 570 569
          373 374 571 570 374 375
          572 571 375 564 573 572
          564 565 574 573 565 67
          68 574 117 566 575 118
          566 567 576 575 567 568
          577 576 568 569 578 577
          569 570 579 578 570 571
          580 579 571 572 581 580
          572 573 582 581 573 574
          583 582 574 68 69 583
          118 575 584 119 575 576
          585 584 576 577 586 585
          577 578 587 586 578 579
          588 587 579 580 589 588
          580 581 590 589 581 582
          591 590 582 583 592 591
          583 69 70 592 119 584
          593 0 584 585 594 593
          585 586 595 594 586 587
          596 595 587 588 597 596
          588 589 598 597 589 590
          599 598 590 591 600 599
          591 592 601 600 592 70
          71 601 0 593 73 9
          593 594 74 73 594 595
          75 74 595 596 76 75
          596 597 77 76 597 598
          78 77 598 599 79 78
          599 600 80 79 600 601
          81 80 601 71 10 81
        </DataArray>
        <DataArray type="Int64" Name="offsets" format="ascii" RangeMin="4" RangeMax="2400">
          4 8 12 16 20 24
          28 32 36 40 44 48
          52 56 60 64 68 72
          76 80 84 88 92 96
          100 104 108 112 116 120
          124 128 132 136 140 144
          148 152 156 160 164 168
          172 176 180 184 188 192
          196 200 204 208 212 216
          220 224 228 232 236 240
          244 248 252 256 260 264
          268 272 276 280 284 288
          292 296 300 304 308 312
          316 320 324 328 332 336
          340 344 348 352 356 360
          364 368 372 376 380 384
          388 392 396 400 404 408
          412 416 420 424 428 432
          436 440 444 448 452 456
          460 464 468 472 476 480
          484 488 492 496 500 504
          508 512 516 520 524 528
          532 536 540 544 548 552
          556 560 564 568 572 576
          580 584 588 592 596 600
          604 608 612 616 620 624
          628 632 636 640 644 648
          652 656 660 664 668 672
          676 680 684 688 692 696
          700 704 708 712 716 720
          724 728 732 736 740 744
          748 752 756 760 764 768
          772 776 780 784 788 792
          796 800 804 808 812 816
          820 824 828 832 836 840
          844 848 852 856 860 864
          868 872 876 880 884 888
          892 896 900 904 908 912
          916 920 924 928 932 936
          940 944 948 952 956 960
          964 968 972 976 980 984
          988 992 996 1000 1004 1008
          1012 1016 1020 1024 1028 1032
          1036 1040 1044 1048 1052 1056
          1060 1064 1068 1072 1076 1080
          1084 1088 1092 1096 1100 1104
          1108 1112 1116 1120 1124 1128
          1132 1136 1140 1144 1148 1152
          1156 1160 1164 1168 1172 1176
          1180 1184 1188 1192 1196 1200
          1204 1208 1212 1216 1220 1224
          1228 1232 1236 1240 1244 1248
          1252 1256 1260 1264 1268 1272
          1276 1280 1284 1288 1292 1296
          1300 1304 1308 1312 1316 1320
          1324 1328 1332 1336 1340 1344
          1348 1352 1356 1360 1364 1368
          1372 1376 1380 1384 1388 1392
          1396 1400 1404 1408 1412 1416
          1420 1424 1428 1432 1436 1440
          1444 1448 1452 1456 1460 1464
          1468 1472 1476 1480 1484 1488
          1492 1496 1500 1504 1508 1512
          1516 1520 1524 1528 1532 1536
          1540 1544 1548 1552 1556 1560
          1564 1568 1572 1576 1580 1584
          1588 1592 1596 1600 1604 1608
          1612 1616 1620 1624 1628 1632
          1636 1640 1644 1648 1652 1656
          1660 1664 1668 1672 1676 1680
          1684 1688 1692 1696 1700 1704
          1708 1712 1716 1720 1724 1728
          1732 1736 1740 1744 1748 1752
          1756 1760 1764 1768 1772 1776
          1780 1784 1788 1792 1796 1800
          1804 1808 1812 1816 1820 1824
          1828 1832 1836 1840 1844 1848
          1852 1856 1860 1864 1868 1872
          1876 1880 1884 1888 1892 1896
          1900 1904 1908 1912 1916 1920
          1924 1928 1932 1936 1940 1944
          1948 1952 1956 1960 1964 1968
          1972 1976 1980 1984 1988 1992
          1996 2000 2004 2008 2012 2016
          2020 2024 2028 2032 2036 2040
          2044 2048 2052 2056 2060 2064
          2068 2072 2076 2080 2084 2088
          2092 2096 2100 2104 2108 2112
          2116 2120 2124 2128 2132 2136
          2140 2144 2148 2152 2156 2160
          2164 2168 2172 2176 2180 2184
          2188 2192 2196 2200 2204 2208