<?xml version="1.0"?>
<VTKFile type="UnstructuredGrid" version="0.1" byte_order="LittleEndian" header_type="UInt32" compressor="vtkZLibDataCompressor">
  <UnstructuredGrid>
    <Piece NumberOfPoints="748" NumberOfCells="1492">
      <PointData>
      </PointData>
      <CellData>
        <DataArray type="Float64" Name="Partition" format="ascii" RangeMin="0" RangeMax="0">
          0 0 0 0 0 0
          0 0 0 0 0 0
          0 0 0 0 0 0
          0 0 0 0 0 0
          0 0 0 0 0 0
          0 0 0 0 0 0
          0 0 0 0 0 0
          0 0 0 0 0 0
          0 0 0 0 0 0
          0 0 0 0 0 0
          0 0 0 0 0 0
          0 0 0 0 0 0
          0 0 0 0 0 0
          0 0 0 0 0 0
          0 0 0 0 0 0
          0 0 0 0 0 0
          0 0 0 0 0 0
          0 0 0 0 0 0
          0 0 0 0 0 0
          0 0 0 0 0 0
          0 0 0 0 0 0
          0 0 0 0 0 0
          0 0 0 0 0 0
          0 0 0 0 0 0
          0 0 0 0 0 0
          0 0 0 0 0 0
          0 0 0 0 0 0
          0 0 0 0 0 0
          0 0 0 0 0 0
          0 0 0 0 0 0
          0 0 0 0 0 0
          0 0 0 0 0 0
          0 0 0 0 0 0
          0 0 0 0 0 0
          0 0 0 0 0 0
          0 0 0 0 0 0
          0 0 0 0 0 0
          0 0 0 0 0 0
          0 0 0 0 0 0
          0 0 0 0 0 0
          0 0 0 0 0 0
          0 0 0 0 0 0
          0 0 0 0 0 0
          0 0 0 0 0 0
          0 0 0 0 0 0
          0 0 0 0 0 0
          0 0 0 0 0 0
          0 0 0 0 0 0
          0 0 0 0 0 0
          0 0 0 0 0 0
          0 0 0 0 0 0
          0 0 0 0 0 0
          0 0 0 0 0 0
          0 0 0 0 0 0
          0 0 0 0 0 0
          0 0 0 0 0 0
          0 0 0 0 0 0
          0 0 0 0 0 0
          0 0 0 0 0 0
          0 0 0 0 0 0
          0 0 0 0 0 0
          0 0 0 0 0 0
          0 0 0 0 0 0
          0 0 0 0 0 0
          0 0 0 0 0 0
          0 0 0 0 0 0
          0 0 0 0 0 0
          0 0 0 0 0 0
          0 0 0 0 0 0
          0 0 0 0 0 0
          0 0 0 0 0 0
          0 0 0 0 0 0
          0 0 0 0 0 0
          0 0 0 0 0 0
          0 0 0 0 0 0
          0 0 0 0 0 0
          0 0 0 0 0 0
          0 0 0 0 0 0
          0 0 0 0 0 0
          0 0 0 0 0 0
          0 0 0 0 0 0
          0 0 0 0 0 0
          0 0 0 0 0 0
          0 0 0 0 0 0
          0 0 0 0 0 0
          0 0 0 0 0 0
          0 0 0 0 0 0
          0 0 0 0 0 0
          0 0 0 0 0 0
          0 0 0 0 0 0
          0 0 0 0 0 0
          0 0 0 0 0 0
          0 0 0 0 0 0
          0 0 0 0 0 0
          0 0 0 0 0 0
          0 0 0 0 0 0
          0 0 0 0 0 0
          0 0 0 0 0 0
          0 0 0 0 0 0
          0 0 0 0 0 0
          0 0 0 0 0 0
          0 0 0 0 0 0
          0 0 0 0 0 0
          0 0 0 0 0 0
          0 0 0 0 0 0
          0 0 0 0 0 0
          0 0 0 0 0 0
          0 0 0 0 0 0
          0 0 0 0 0 0
          0 0 0 0 0 0
          0 0 0 0 0 0
          0 0 0 0 0 0
          0 0 0 0 0 0
          0 0 0 0 0 0
          0 0 0 0 0 0
          0 0 0 0 0 0
          0 0 0 0 0 0
          0 0 0 0 0 0
          0 0 0 0 0 0
          0 0 0 0 0 0
          0 0 0 0 0 0
          0 0 0 0 0 0
          0 0 0 0 0 0
          0 0 0 0 0 0
          0 0 0 0 0 0
          0 0 0 0 0 0
          0 0 0 0 0 0
          0 0 0 0 0 0
          0 0 0 0 0 0
          0 0 0 0 0 0
          0 0 0 0 0 0
          0 0 0 0 0 0
          0 0 0 0 0 0
          0 0 0 0 0 0
          0 0 0 0 0 0
          0 0 0 0 0 0
          0 0 0 0 0 0
          0 0 0 0 0 0
          0 0 0 0 0 0
          0 0 0 0 0 0
          0 0 0 0 0 0
          0 0 0 0 0 0
          0 0 0 0 0 0
          0 0 0 0 0 0
          0 0 0 0 0 0
          0 0 0 0 0 0
          0 0 0 0 0 0
          0 0 0 0 0 0
          0 0 0 0 0 0
          0 0 0 0 0 0
          0 0 0 0 0 0
          0 0 0 0 0 0
          0 0 0 0 0 0
          0 0 0 0 0 0
          0 0 0 0 0 0
          0 0 0 0 0 0
          0 0 0 0 0 0
          0 0 0 0 0 0
          0 0 0 0 0 0
          0 0 0 0 0 0
          0 0 0 0 0 0
          0 0 0 0 0 0
          0 0 0 0 0 0
          0 0 0 0 0 0
          0 0 0 0 0 0
          0 0 0 0 0 0
          0 0 0 0 0 0
          0 0 0 0 0 0
          0 0 0 0 0 0
          0 0 0 0 0 0
          0 0 0 0 0 0
          0 0 0 0 0 0
          0 0 0 0 0 0
          0 0 0 0 0 0
          0 0 0 0 0 0
          0 0 0 0 0 0
          0 0 0 0 0 0
          0 0 0 0 0 0
          0 0 0 0 0 0
          0 0 0 0 0 0
          0 0 0 0 0 0
          0 0 0 0 0 0
          0 0 0 0 0 0
          0 0 0 0 0 0
          0 0 0 0 0 0
          0 0 0 0 0 0
          0 0 0 0 0 0
          0 0 0 0 0 0
          0 0 0 0 0 0
          0 0 0 0 0 0
          0 0 0 0 0 0
          0 0 0 0 0 0
          0 0 0 0 0 0
          0 0 0 0 0 0
          0 0 0 0 0 0
          0 0 0 0 0 0
          0 0 0 0 0 0
          0 0 0 0 0 0
          0 0 0 0 0 0
          0 0 0 0 0 0
          0 0 0 0 0 0
          0 0 0 0 0 0
          0 0 0 0 0 0
          0 0 0 0 0 0
          0 0 0 0 0 0
          0 0 0 0 0 0
          0 0 0 0 0 0
          0 0 0 0 0 0
          0 0 0 0 0 0
          0 0 0 0 0 0
          0 0 0 0 0 0
          0 0 0 0 0 0
          0 0 0 0 0 0
          0 0 0 0 0 0
          0 0 0 0 0 0
          0 0 0 0 0 0
          0 0 0 0 0 0
          0 0 0 0 0 0
          0 0 0 0 0 0
          0 0 0 0 0 0
          0 0 0 0 0 0
          0 0 0 0 0 0
          0 0 0 0 0 0
          0 0 0 0 0 0
          0 0 0 0 0 0
          0 0 0 0 0 0
          0 0 0 0 0 0
          0 0 0 0 0 0
          0 0 0 0 0 0
          0 0 0 0 0 0
          0 0 0 0 0 0
          0 0 0 0 0 0
          0 0 0 0 0 0
          0 0 0 0 0 0
          0 0 0 0 0 0
          0 0 0 0 0 0
          0 0 0 0 0 0
          0 0 0 0 0 0
          0 0 0 0 0 0
          0 0 0 0 0 0
          0 0 0 0 0 0
          0 0 0 0 0 0
          0 0 0 0 0 0
          0 0 0 0 0 0
          0 0 0 0 0 0
          0 0 0 0 0 0
          0 0 0 0 0 0
          0 0 0 0 0 0
          0 0 0 0
        </DataArray>
      </CellData>
      <Points>
        <DataArray type="Float32" Name="Points" NumberOfComponents="3" format="ascii" RangeMin="0" RangeMax="17.320508076">
          10 4 0 0 0 0
          0 10 0 0 10 10
          10 0 0 10 0 10
          0 7 10 0 8 10
          10 10 0 10 10 10
          0 0 10 0 9 10
          10 10 1 10 10 7
          0 6 10 0 5 10
          0 4 10 0 3 10
          0 2 10 0 1 10
          2 10 10 1 10 10
          1 0 10 10 10 2
          10 10 3 10 10 4
          10 10 5 10 10 6
          10 4 10 10 5 10
          10 6 10 10 10 8
          10 10 9 9 10 10
          8 10 10 7 10 10
          6 10 10 5 10 10
          4 10 10 3 10 10
          10 5 0 10 6 0
          10 7 0 10 8 0
          10 9 0 2 0 10
          3 0 10 4 0 10
          5 0 10 6 0 10
          7 0 10 8 0 10
          9 0 10 10 1 10
          10 2 10 10 3 10
          0 9 0 0 10 1
          0 10 2 0 10 3
          0 10 4 0 10 5
          0 10 6 0 10 7
          10 7 10 10 8 10
          10 9 10 10 0 9
          10 0 8 10 0 7
          10 0 6 10 0 5
          10 0 4 10 0 3
          10 0 2 10 0 1
          10 1 0 10 2 0
          10 3 0 3.5928988457 1.5113393068 10
          1.5113393068 3.5928988457 10 8.4886608124 3.5928988457 10
          1.5113393068 6.4071011543 10 6.4071011543 1.5113393068 10
          3.6165852547 8.4794530869 10 6.4071011543 8.4886608124 10
          8.4886608124 6.4071011543 10 3.5984320641 4.3301391602 10
          5.7539758682 3.5900745392 10 9 0 0
          8 0 0 7 0 0
          6 0 0 5 0 0
          4 0 0 3 0 0
          2 0 0 1 0 0
          0 0 1 0 0 2
          0 0 3 0 0 4
          0 0 5 0 0 6
          0 0 7 0 0 8
          0 0 9 0 1 0
          0 2 0 0 3 0
          0 4 0 0 5 0
          0 6 0 0 7 0
          0 8 0 0.79971402884 1.7989827394 10
          1.7989827394 9.2002859116 10 0.79971402884 8.2010173798 10
          8.2010173798 9.2002859116 10 8.2010173798 0.79971402884 10
          9.2002859116 8.2010173798 10 3.5618515015 3.4886317253 10
          3.011973381 4.9147648811 10 6.5260081291 3.4292933941 10
          4.9298734665 6.9689707756 10 4.3795824051 1.6257623434 10
          8.3671283722 4.3781266212 10 1.684073329 5.6087646484 10
          5.6089448929 8.3150720596 10 1.8260353804 4.2599797249 10
          5.7277226448 1.8382163048 10 0 10 8
          0 10 9 1 10 0
          2 10 0 3 10 0
          4 10 0 5 10 0
          6 10 0 7 10 0
          8 10 0 9 10 0
          5.1229224205 4.9398918152 10 2.8137273788 2.963357687 10
          7.0366425514 2.8137273788 10 2.9285714626 7.0714287758 10
          7.1863942146 7.0196948051 10 2.1073608398 4.9316697121 10
          4.9306640625 2.2414209843 10 4.9316697121 7.8926391602 10
          7.7585792542 4.9306640625 10 1.7050265074 1.7050265074 10
          8.2949733734 1.7050265074 10 1.7050265074 8.2949733734 10
          8.2949733734 8.2949733734 10 2.5970139503 0 0.99390572309
          9.0224094391 0 2.6116809845 7.4029860497 0 0.99390572309
          9.0233488083 0 7.3907361031 0.99390572309 0 7.4029860497
          7.4029860497 0 9.0060939789 3.9587936401 0 2.5471704006
          2.6426486969 0 5.9878749847 7.4528298378 0 3.9587936401
          5.9897646904 0 7.3442430496 6.0477824211 0 2.5170369148
          7.4672384262 0 6.0494823456 4.0002002716 0 4.6408510208
          4.8894081116 0 6.0139541626 0.99878108501 0 0.99878108501
          0.99878108501 0 9.0012187958 9.0012187958 0 0.99878108501
          9.0012187958 0 9.0012187958 0.8324867487 0 4.2992124557
          4.2992124557 0 9.1675128937 4.2798914909 6.3606395721 10
          6.346850872 5.7409825325 10 4.2801580429 3.1196591854 10
          3.4047212601 5.6841278076 10 6.6315112114 4.2292137146 10
          5.6750593185 6.5047268867 10 1.0940004587 4.6193914413 10
          5.3353962898 1.0984320641 10 4.6209020615 8.905412674 10
          8.9015684128 5.3353962898 10 2.6092638969 0.97665137053 10
          9.0233488083 2.6092638969 10 0.99390572309 2.5970139503 10
          2.6116809845 9.0224094391 10 0.99390572309 7.4029860497 10
          7.3907361031 9.0233488083 10 7.4029860497 0.99390572309 10
          9.0060939789 7.4029860497 10 2.5471704006 3.9587936401 10
          5.9878749847 2.6426486969 10 3.9587936401 7.4528298378 10
          7.3442430496 5.9897646904 10 2.5170369148 6.0477824211 10
          6.0494823456 7.4672384262 10 4.6408510208 4.0002002716 10
          6.0139541626 4.8894081116 10 0.99878108501 0.99878108501 10
          9.0012187958 0.99878108501 10 0.99878108501 9.0012187958 10
          9.0012187958 9.0012187958 10 4.2992124557 0.8324867487 10
          9.1675128937 4.2992124557 10 0.83174818754 5.6932520866 10
          5.6935038567 9.1681537628 10 2.0038342476 2.6297636032 10
          7.3702363968 2.0038342476 10 2.0629901886 7.2061543465 10
          7.9961657524 7.3702363968 10 2.7356328964 2.0344774723 10
          2.7220618725 8.0126533508 10 7.9655227661 2.7356328964 10
          7.2779383659 8.0126533508 10 3.7397391796 2.4451327324 10
          7.5193200111 3.7324614525 10 4.1201338768 5.1124587059 10
          5.0886464119 5.9032268524 10 5.0581479073 3.0728662014 10
          3.4576358795 6.4608416557 10 6.8190279007 5.1560063362 10
          6.4597644806 6.5286192894 10 3.500275135 0.66409546137 10
          9.3359041214 3.500275135 10 0.71984910965 3.5618607998 10
          3.5698337555 9.28145504 10 0.66739863157 6.5006680489 10
          6.4982681274 9.3360328674 10 6.4290966988 0.72073543072 10
          9.2792644501 6.4290966988 10 1.7989827394 0.79971402884 10
          9.2002859116 1.7989827394 10 0 0.7815964818 1.7619287968
          0 1.7608044147 0.78214734793 0 9.2002859116 1.7989827394
          0 8.2010173798 9.2002859116 0 1.7989827394 9.2002859116
          0 8.2010173798 0.79971402884 0 9.2002859116 8.2010173798
          0 0.79971402884 8.2010173798 0 3.4977128506 3.5684239864
          0 4.9251365662 3.0202417374 0 6.9612970352 4.9375305176
          0 5.0847535133 7.0999002457 0 4.2531218529 1.7161536217
          0 1.6259688139 4.3794322014 0 8.3312473297 4.4093022346
          0 4.4014878273 8.3262643814 0 5.7248072624 1.8253481388
          0 1.8386911154 5.7275509834 0 5.7180123329 8.1825838089
          0 8.1712017059 5.72488451 0 5.2801032066 5.7269878387
          0 3.3824958801 2.1584661007 0 2.1865115166 6.6693401337
          4.9707627296 10 5.0607423782 2.963357687 10 2.8137273788
          7.0714287758 10 2.9285714626 7.0714287758 10 7.0714287758
          2.813605547 10 7.0196948051 5.0300030708 10 2.1511991024
          2.2414209843 10 4.9306640625 5.0683302879 10 7.8926391602
          4.2819876671 8.1825838089 10 8.1611013412 5.7278208733 10
          5.6594982147 5.5528111458 10 2.1865115166 3.3306598663 10
          6.6693401337 2.1865115166 10 7.8134884834 6.6693401337 10
          5.503862381 4.2990937233 10 4.9398918152 0 5.1229224205
          2.963357687 0 2.8137273788 2.8137273788 0 7.0366425514
          7.0714287758 0 2.9285714626 7.0196948051 0 7.1863942146
          4.9316697121 0 2.1073608398 2.2414209843 0 4.9306640625
          7.8926391602 0 4.9316697121 4.9306640625 0 7.7585792542
          1.7050265074 0 1.7050265074 1.7050265074 0 8.2949733734
          8.2949733734 0 1.7050265074 8.2949733734 0 8.2949733734
          1.5113393068 0 3.5928988457 3.5928988457 0 1.5113393068
          3.5928988457 0 8.4886608124 6.4071011543 0 1.5113393068
          1.5113393068 0 6.4071011543 8.4794530869 0 3.6165852547
          8.4886608124 0 6.4071011543 6.4071011543 0 8.4886608124
          4.3301391602 0 3.5984320641 3.5900745392 0 5.7539758682
          6.3606395721 0 4.2798914909 5.7409825325 0 6.346850872
          3.1196591854 0 4.2801580429 5.6841278076 0 3.4047212601
          4.2292137146 0 6.6315112114 6.5047268867 0 5.6750593185
          4.6193914413 0 1.0940004587 1.0984320641 0 5.3353962898
          8.905412674 0 4.6209020615 5.3353962898 0 8.9015684128
          0.97665137053 0 2.6092638969 2.6092638969 0 9.0233488083
          0.7815964818 10 1.7619287968 1.7608044147 10 0.78214734793
          9.2002859116 10 1.7989827394 8.2010173798 10 9.2002859116
          1.7989827394 10 9.2002859116 8.2010173798 10 0.79971402884
          9.2002859116 10 8.2010173798 0.79971402884 10 8.2010173798
          3.4977128506 10 3.5684239864 4.9251365662 10 3.0202417374
          6.9612970352 10 4.9375305176 5.0847535133 10 7.0999002457
          4.2531218529 10 1.7161536217 1.6259688139 10 4.3794322014
          8.3312473297 10 4.4093022346 4.4014878273 10 8.3262643814
          5.7248072624 10 1.8253481388 1.8386911154 10 5.7275509834
          5.7180123329 10 8.1825838089 8.1712017059 10 5.72488451
          5.2801032066 10 5.7269878387 3.3824958801 10 2.1584661007
          2.1865115166 10 6.6693401337 10 5 5
          10 2.9285714626 7.0714287758 10 2.8137273788 2.963357687
          10 7.0366425514 2.8137273788 10 7.0714287758 7.0714287758
          10 2.2323298454 5.0218930244 10 4.9306640625 2.2414209843
          10 5.0300030708 7.8488006592 10 7.7585792542 4.9306640625
          10 1.7050265074 1.7050265074 10 1.7050265074 8.2949733734
          10 8.2949733734 1.7050265074 10 8.2949733734 8.2949733734
          10 3.5928988457 1.5113393068 10 1.5113393068 6.4071011543
          10 1.4197784662 3.4646654129 5.6932520866 0 0.83174818754
          9.1681537628 0 5.6935038567 2.6297636032 0 2.0038342476
          2.0038342476 0 7.3702363968 7.2061543465 0 2.0629901886
          7.3702363968 0 7.9961657524 2.0344774723 0 2.7356328964
          8.0126533508 0 2.7220618725 2.7356328964 0 7.9655227661
          8.0126533508 0 7.2779383659 2.4451327324 0 3.7397391796
          3.7324614525 0 7.5193200111 5.1124587059 0 4.1201338768
          5.9032268524 0 5.0886464119 3.0728662014 0 5.0581479073
          6.4608416557 0 3.4576358795 5.1560063362 0 6.8190279007
          6.5286192894 0 6.4597644806 0.66409546137 0 3.500275135
          3.500275135 0 9.3359041214 3.5618607998 0 0.71984910965
          9.28145504 0 3.5698337555 6.5006680489 0 0.66739863157
          9.3360328674 0 6.4982681274 0.72073543072 0 6.4290966988
          6.4290966988 0 9.2792644501 0.79971402884 0 1.7989827394
          1.7989827394 0 9.2002859116 1.7989827394 0 0.79971402884
          9.2002859116 0 1.7989827394 8.2010173798 0 0.79971402884
          9.2002859116 0 8.2010173798 0.79971402884 0 8.2010173798
          8.2010173798 0 9.2002859116 3.4886317253 0 3.5618515015
          4.9147648811 0 3.011973381 3.4292933941 0 6.5260081291
          6.9689707756 0 4.9298734665 1.6257623434 0 4.3795824051
          4.3781266212 0 8.3671283722 5.6087646484 0 1.684073329
          8.3150720596 0 5.6089448929 4.2599797249 0 1.8260353804
          1.8382163048 0 5.7277226448 8.1825838089 0 4.2819876671
          5.7278208733 0 8.1611013412 5.5528111458 0 5.6594982147
          3.3306598663 0 2.1865115166 2.1865115166 0 6.6693401337
          6.6693401337 0 7.8134884834 4.2990937233 0 5.503862381
          0 4.9707627296 5.0607423782 0 2.963357687 2.8137273788
          0 7.0714287758 2.9285714626 0 7.0714287758 7.0714287758
          0 2.813605547 7.0196948051 0 5.0300030708 2.1511991024
          0 2.2414209843 4.9306640625 0 5.0683302879 7.8926391602
          0 7.8488006592 5.0300030708 0 1.7050265074 1.7050265074
          0 8.2949733734 1.7050265074 0 1.7050265074 8.2949733734
          0 8.2949733734 8.2949733734 0 3.4646654129 1.4197784662
          0 1.5113393068 3.5928988457 0 8.4886608124 3.5928988457
          0 6.4079470634 1.5182480812 0 1.5113393068 6.4071011543
          0 6.3834147453 8.4794530869 0 3.5928988457 8.4886608124
          0 8.481751442 6.4079470634 0 4.3301391602 3.5984320641
          0 6.3606395721 4.2798914909 0 3.5984320641 5.6698608398
          0 5.6729841232 6.4401278496 0 3.1196591854 4.2801580429
          0 5.6841278076 3.4047212601 0 6.4848618507 5.6866016388
          0 4.4130125046 6.6617336273 0 5.3953471184 1.0967588425
          0 1.0984320641 5.3353962898 0 8.9032411575 5.3953471184
          0 5.3790979385 8.905412674 0 0.97665137053 2.6092638969
          0 2.5876674652 0.98723214865 0 9.0233488083 2.6092638969
          0 7.3883190155 9.0224094391 0 2.6092638969 9.0233488083
          0 7.4030475616 0.99440926313 0 9.0055904388 7.4030475616
          0 0.99390572309 7.4029860497 0 4.0102229118 2.625726223
          0 7.4425210953 3.9222056866 0 6.0412063599 7.4528298378
          0 2.6517689228 5.9845809937 0 6.065931797 2.5351862907
          0 7.4510116577 6.0662407875 0 3.9615266323 7.48686409
          0 4.0240211487 4.6182518005 0 0.96889060736 0.96889060736
          0 9.0012187958 0.99878108501 0 0.99878108501 9.0012187958
          0 9.0012187958 9.0012187958 0 4.2878317833 0.8169477582
          0 0.8324867487 4.2992124557 0 9.1677923203 4.3092041016
          0 4.3064961433 9.1681537628 0 2.6731207371 1.9723895788
          0 7.2093300819 2.0672504902 0 2.0038342476 7.3702363968
          0 7.9304490089 7.2093815804 0 2.0417034626 2.7303919792
          0 8.0126533508 2.7220618725 0 2.7220618725 8.0126533508
          0 7.2779383659 8.0126533508 0 2.4461650848 3.7389905453
          0 5.1153059006 4.1157202721 0 5.9032268524 5.0886464119
          0 4.4318933487 5.7406535149 0 6.4614133835 3.456291914
          0 3.0674910545 5.0425000191 0 3.5932369232 6.4954996109
          0 6.52597332 6.4558272362 0 0.66409546137 3.500275135
          0 3.4771664143 0.65365594625 0 9.3359603882 3.5022733212
          0 3.5017318726 9.3360328674 0 6.4301662445 9.28145504
          0 6.4412684441 0.72188323736 0 9.2781171799 6.4412684441
          0 0.72073543072 6.4290966988 7.8488006592 10 5.0300030708
          1.7050265074 10 1.7050265074 8.2949733734 10 1.7050265074
          1.7050265074 10 8.2949733734 8.2949733734 10 8.2949733734
          3.4646654129 10 1.4197784662 1.5113393068 10 3.5928988457
          8.4886608124 10 3.5928988457 6.4079470634 10 1.5182480812
          1.5113393068 10 6.4071011543 6.3834147453 10 8.4794530869
          3.5928988457 10 8.4886608124 8.481751442 10 6.4079470634
          4.3301391602 10 3.5984320641 6.3606395721 10 4.2798914909
          3.5984320641 10 5.6698608398 5.6729841232 10 6.4401278496
          3.1196591854 10 4.2801580429 5.6841278076 10 3.4047212601
          6.4848618507 10 5.6866016388 4.4130125046 10 6.6617336273
          5.3953471184 10 1.0967588425 1.0984320641 10 5.3353962898
          8.9032411575 10 5.3953471184 5.3790979385 10 8.905412674
          0.97665137053 10 2.6092638969 2.5876674652 10 0.98723214865
          9.0233488083 10 2.6092638969 7.3883190155 10 9.0224094391
          2.6092638969 10 9.0233488083 7.4030475616 10 0.99440926313
          9.0055904388 10 7.4030475616 0.99390572309 10 7.4029860497
          4.0102229118 10 2.625726223 7.4425210953 10 3.9222056866
          6.0412063599 10 7.4528298378 2.6517689228 10 5.9845809937
          6.065931797 10 2.5351862907 7.4510116577 10 6.0662407875
          3.9615266323 10 7.48686409 4.0240211487 10 4.6182518005
          0.96889060736 10 0.96889060736 9.0012187958 10 0.99878108501
          0.99878108501 10 9.0012187958 9.0012187958 10 9.0012187958
          4.2878317833 10 0.8169477582 0.8324867487 10 4.2992124557
          9.1677923203 10 4.3092041016 4.3064961433 10 9.1681537628
          2.6731207371 10 1.9723895788 7.2093300819 10 2.0672504902
          2.0038342476 10 7.3702363968 7.9304490089 10 7.2093815804
          2.0417034626 10 2.7303919792 8.0126533508 10 2.7220618725
          2.7220618725 10 8.0126533508 7.2779383659 10 8.0126533508
          2.4461650848 10 3.7389905453 5.1153059006 10 4.1157202721
          5.9032268524 10 5.0886464119 4.4318933487 10 5.7406535149
          6.4614133835 10 3.456291914 3.0674910545 10 5.0425000191
          3.5932369232 10 6.4954996109 6.52597332 10 6.4558272362
          0.66409546137 10 3.500275135 3.4771664143 10 0.65365594625
          9.3359603882 10 3.5022733212 3.5017318726 10 9.3360328674
          6.4301662445 10 9.28145504 6.4412684441 10 0.72188323736
          9.2781171799 10 6.4412684441 0.72073543072 10 6.4290966988
          10 3.5928988457 8.4886608124 10 8.4886608124 3.5928988457
          10 6.4071011543 1.5113393068 10 6.4079470634 8.481751442
          10 8.4794530869 6.3834147453 10 3.5900745392 4.2460241318
          10 5.7539758682 3.5900745392 10 4.3301391602 6.4015679359
          10 6.346850872 5.7409825325 10 3.0126307011 5.7200717926
          10 4.2292137146 3.3684885502 10 6.6315112114 4.2292137146
          10 5.6750593185 6.5047268867 10 1.1009595394 5.3655753136
          10 5.3353962898 1.0984320641 10 5.3953471184 8.9032411575
          10 8.9015684128 5.3353962898 10 2.6092638969 9.0233488083
          10 2.6092638969 0.97665137053 10 9.0233488083 2.6092638969
          10 0.98723214865 2.5876674652 10 0.99390572309 7.4029860497
          10 7.4029860497 0.99390572309 10 9.0224094391 7.3883190155
          10 7.4030475616 9.0055904388 10 3.9587936401 7.4528298378
          10 2.635102272 4.0120210648 10 5.9878749847 2.6426486969
          10 7.4286594391 6.0601325035 10 6.0647983551 7.4534945488
          10 3.9960110188 5.3701448441 10 4.8267111778 4.0050830841
          10 5.9933137894 4.8559122086 10 0.99878108501 0.99878108501
          10 0.99878108501 9.0012187958 10 9.0012187958 0.99878108501
          10 9.0311098099 9.0311098099 10 4.2992124557 0.8324867487
          10 4.3092041016 9.1677923203 10 9.1675128937 4.2992124557
          10 0.81764787436 4.2828702927 10 2.0469384193 7.2500162125
          10 1.9723895788 2.6731207371 10 7.3702363968 2.0038342476
          10 7.2091412544 7.9308629036 10 2.7303919792 2.0417034626
          10 2.7220618725 8.0126533508 10 7.9655227661 2.7356328964
          10 8.0126533508 7.2779383659 10 2.4732670784 6.444922924
          10 3.7317128181 2.4817121029 10 7.5193200111 3.7324614525
          10 5.0886464119 5.9032268524 10 3.0703551769 4.9242563248
          10 5.1456880569 3.1695432663 10 6.8665513992 5.1233935356
          10 6.4721188545 6.5433144569 10 3.5022733212 9.3359603882
          10 3.500275135 0.66409546137 10 9.3359041214 3.500275135
          10 0.65375596285 3.4764575958 10 0.72124087811 6.4351325035
          10 6.4290966988 0.72073543072 10 9.2806863785 6.4214258194
          10 6.4412684441 9.2781171799 10 1.7989827394 9.2002859116
          10 1.7989827394 0.79971402884 10 9.2002859116 1.7989827394
          10 0.79971402884 1.7989827394 10 0.79971402884 8.2010173798
          10 8.2010173798 0.79971402884 10 9.2002859116 8.2010173798
          10 8.2010173798 9.2002859116 10 3.4284470081 3.4740865231
          10 3.4745995998 6.4477963448 10 6.5260081291 3.4292933941
          10 4.943810463 6.9675545692 10 4.3779768944 1.6330782175
          10 4.4572496414 8.3722648621 10 8.3671283722 4.3781266212
          10 1.7320549488 4.2462806702 10 1.8720654249 5.7084174156
          10 5.7277226448 1.8382163048 10 5.7245240211 8.1718225479
          10 8.1420650482 5.6774020195 10 5.6520004272 5.5249295235
          10 2.1498272419 3.402715683 10 6.6693401337 2.1865115166
          10 4.2937173843 4.5251979828 10 5.537715435 4.309340477
          5 5 0 2.963357687 2.8137273788 0
          7.0714287758 2.9285714626 0 2.8137273788 7.0366425514 0
          7.0714287758 7.0714287758 0 5.0218930244 2.2323298454 0
          2.2414209843 4.9306640625 0 7.8488006592 5.0300030708 0
          4.9306640625 7.7585792542 0 1.7050265074 1.7050265074 0
          8.2949733734 1.7050265074 0 1.7050265074 8.2949733734 0
          8.2949733734 8.2949733734 0 1.5113393068 3.5928988457 0
          6.4071011543 1.5113393068 0 3.4646654129 1.4197784662 0
          8.4886608124 3.5928988457 0 3.5928988457 8.4886608124 0
          1.5113393068 6.4071011543 0 8.481751442 6.4079470634 0
          6.3834147453 8.4794530869 0 4.2460241318 3.5900745392 0
          3.5900745392 5.7539758682 0 6.4015679359 4.3301391602 0
          5.7409825325 6.346850872 0 5.7200717926 3.0126307011 0
          3.3684885502 4.2292137146 0 4.2292137146 6.6315112114 0
          6.5047268867 5.6750593185 0 5.3655753136 1.1009595394 0
          1.0984320641 5.3353962898 0 8.9032411575 5.3953471184 0
          5.3353962898 8.9015684128 0 9.0233488083 2.6092638969 0
          0.97665137053 2.6092638969 0 2.6092638969 9.0233488083 0
          2.5876674652 0.98723214865 0 7.4029860497 0.99390572309 0
          0.99390572309 7.4029860497 0 7.3883190155 9.0224094391 0
          9.0055904388 7.4030475616 0 7.4528298378 3.9587936401 0
          4.0120210648 2.635102272 0 2.6426486969 5.9878749847 0
          6.0601325035 7.4286594391 0 7.4534945488 6.0647983551 0
          5.3701448441 3.9960110188 0 4.0050830841 4.8267111778 0
          4.8559122086 5.9933137894 0 0.99878108501 0.99878108501 0
          9.0012187958 0.99878108501 0 0.99878108501 9.0012187958 0
          9.0311098099 9.0311098099 0 0.8324867487 4.2992124557 0
          9.1677923203 4.3092041016 0 4.2992124557 9.1675128937 0
          4.2828702927 0.81764787436 0 7.2500162125 2.0469384193 0
          2.6731207371 1.9723895788 0 2.0038342476 7.3702363968 0
          7.9308629036 7.2091412544 0 2.0417034626 2.7303919792 0
          8.0126533508 2.7220618725 0 2.7356328964 7.9655227661 0
          7.2779383659 8.0126533508 0 6.444922924 2.4732670784 0
          2.4817121029 3.7317128181 0 3.7324614525 7.5193200111 0
          5.9032268524 5.0886464119 0 4.9242563248 3.0703551769 0
          3.1695432663 5.1456880569 0 5.1233935356 6.8665513992 0
          6.5433144569 6.4721188545 0 9.3359603882 3.5022733212 0
          0.66409546137 3.500275135 0 3.500275135 9.3359041214 0
          3.4764575958 0.65375596285 0 6.4351325035 0.72124087811 0
          0.72073543072 6.4290966988 0 6.4214258194 9.2806863785 0
          9.2781171799 6.4412684441 0 9.2002859116 1.7989827394 0
          0.79971402884 1.7989827394 0 1.7989827394 9.2002859116 0
          1.7989827394 0.79971402884 0 8.2010173798 0.79971402884 0
          0.79971402884 8.2010173798 0 8.2010173798 9.2002859116 0
          9.2002859116 8.2010173798 0 3.4740865231 3.4284470081 0
          6.4477963448 3.4745995998 0 3.4292933941 6.5260081291 0
          6.9675545692 4.943810463 0 1.6330782175 4.3779768944 0
          8.3722648621 4.4572496414 0 4.3781266212 8.3671283722 0
          4.2462806702 1.7320549488 0 5.7084174156 1.8720654249 0
          1.8382163048 5.7277226448 0 8.1718225479 5.7245240211 0
          5.6774020195 8.1420650482 0 5.5249295235 5.6520004272 0
          3.402715683 2.1498272419 0 2.1865115166 6.6693401337 0
          4.5251979828 4.2937173843 0 4.309340477 5.537715435 0
        </DataArray>
      </Points>
      <Cells>
        <DataArray type="Int64" Name="connectivity" format="ascii" RangeMin="0" RangeMax="747">
          54 234 53 53 202 5
          234 202 53 55 186 54
          186 234 54 28 226 55
          226 186 55 33 204 9
          34 118 33 118 204 33
          38 183 37 37 208 36
          183 208 37 202 52 5
          52 119 51 202 119 52
          49 182 48 48 205 47
          182 205 48 50 231 49
          231 182 49 14 229 6
          15 207 14 207 229 14
          201 19 10 22 201 10
          39 228 38 228 183 38
          19 115 18 201 115 19
          6 189 7 229 189 6
          18 187 17 115 187 18
          7 117 11 189 117 7
          36 230 35 208 230 36
          45 233 22 233 201 22
          46 185 45 185 233 45
          11 203 3 203 21 3
          117 203 11 204 66 9
          51 191 50 191 231 50
          119 191 51 47 225 46
          225 185 46 205 225 47
          21 116 20 20 188 39
          116 188 20 203 116 21
          188 228 39 16 181 15
          181 207 15 17 227 16
          227 181 16 35 190 34
          190 118 34 230 190 35
          187 227 17 29 206 28
          206 226 28 30 184 29
          184 206 29 64 232 30
          232 184 30 65 192 64
          192 232 64 66 120 65
          120 192 65 204 120 66
          194 270 144 270 210 144
          123 194 144 218 123 144
          210 215 144 215 218 144