<?xml version="1.0"?>
<VTKFile type="UnstructuredGrid" version="0.1" byte_order="LittleEndian" header_type="UInt32" compressor="vtkZLibDataCompressor">
  <UnstructuredGrid>
    <Piece NumberOfPoints="276" NumberOfCells="150">
      <PointData GlobalIds="GLOBAL_IDS_POINTS">
        <DataArray type="Int64" IdType="1" Name="GLOBAL_IDS_POINTS" format="ascii" RangeMin="0" RangeMax="275">
          0 1 2 3 4 5 6 7 8 9
          10 11 12 13 14 15 16 17 18 19
          20 21 22 23 24 25 26 27 28 29
          30 31 32 33 34 35 36 37 38 39
          40 41 42 43 44 45 46 47 48 49
          50 51 52 53 54 55 56 57 58 59
          60 61 62 63 64 65 66 67 68 69
          70 71 72 73 74 75 76 77 78 79
          80 81 82 83 84 85 86 87 88 89
          90 91 92 93 94 95 96 97 98 99
          100 101 102 103 104 105 106 107 108 109
          110 111 112 113 114 115 116 117 118 119
          120 121 122 123 124 125 126 127 128 129
          130 131 132 133 134 135 136 137 138 139
          140 141 142 143 144 145 146 147 148 149
          150 151 152 153 154 155 156 157 158 159
          160 161 162 163 164 165 166 167 168 169
          170 171 172 173 174 175 176 177 178 179
          180 181 182 183 184 185 186 187 188 189
          190 191 192 193 194 195 196 197 198 199
          200 201 202 203 204 205 206 207 208 209
          210 211 212 213 214 215 216 217 218 219
          220 221 222 223 224 225 226 227 228 229
          230 231 232 233 234 235 236 237 238 239
          240 241 242 243 244 245 246 247 248 249
          250 251 252 253 254 255 256 257 258 259
          260 261 262 263 264 265 266 267 268 269
          270 271 272 273 274 275
        </DataArray>
      </PointData>
      <CellData GlobalIds="GLOBAL_IDS_CELLS">
        <DataArray type="Int64" IdType="1" Name="GLOBAL_IDS_CELLS" format="ascii" RangeMin="0" RangeMax="149">
          0 1 2 3 4 5 6 7 8 9
          10 11 12 13 14 15 16 17 18 19
          20 21 22 23 24 25 26 27 28 29
          30 31 32 33 34 35 36 37 38 39
          40 41 42 43 44 45 46 47 48 49
          50 51 52 53 54 55 56 57 58 59
          60 61 62 63 64 65 66 67 68 69
          70 71 72 73 74 75 76 77 78 79
          80 81 82 83 84 85 86 87 88 89
          90 91 92 93 94 95 96 97 98 99
          100 101 102 103 104 105 106 107 108 109
          110 111 112 113 114 115 116 117 118 119
          120 121 122 123 124 125 126 127 128 129
          130 131 132 133 134 135 136 137 138 139
          140 141 142 143 144 145 146 147 148 149
        </DataArray>
      </CellData>
      <Points>
        <DataArray type="Float32" Name="Points" NumberOfComponents="3" format="ascii" RangeMin="0" RangeMax="11.224972160321824">
          -5 0 0 -4 0 0
          -3 0 0 -2 0 0
          -1 0 0 0 0 0
          -5 1 0 -4 1 0
          -3 1 0 -2 1 0
          -1 1 0 0 1 0
          -5 2 0 -4 2 0
          -3 2 0 -2 2 0
          -1 2 0 0 2 0
          -5 3 0 -4 3 0
          -3 3 0 -2 3 0
          -1 3 0 0 3 0
          -5 4 0 -4 4 0
          -3 4 0 -2 4 0
          -1 4 0 0 4 0
          -5 5 0 -4 5 0
          -3 5 0 -2 5 0
          -1 5 0 0 5 0
          -5 6 0 -4 6 0
          -3 6 0 -2 6 0
          -1 6 0 0 6 0
          -5 7 0 -4 7 0
          -3 7 0 -2 7 0
          -1 7 0 0 7 0
          -5 8 0 -4 8 0
          -3 8 0 -2 8 0
          -1 8 0 0 8 0
          -5 9 0 -4 9 0
          -3 9 0 -2 9 0
          -1 9 0 0 9 0
          -5 10 0 -4 10 0
          -3 10 0 -2 10 0
          -1 10 0 0 10 0
          -5 0 1 -4 0 1
          -3 0 1 -2 0 1
          -1 0 1 0 0 1
          -5 1 1 -4 1 1
          -3 1 1 -2 1 1
          -1 1 1 0 1 1
          -5 2 1 -4 2 1
          -3 2 1 -2 2 1
          -1 2 1 0 2 1
          -5 3 1 -4 3 1
          -3 3 1 -2 3 1
          -1 3 1 0 3 1
          -5 4 1 -4 4 1
          -3 4 1 -2 4 1
          -1 4 1 0 4 1
          -5 5 1 -4 5 1
          -3 5 1 -2 5 1
          -1 5 1 0 5 1
          -5 6 1 -4 6 1
          -3 6 1 -2 6 1
          -1 6 1 0 6 1
          -5 7 1 -4 7 1
          -3 7 1 -2 7 1
          -1 7 1 0 7 1
          -5 8 1 -4 8 1
          -3 8 1 -2 8 1
          -1 8 1 0 8 1
          -5 9 1 -4 9 1
          -3 9 1 -2 9 1
          -1 9 1 0 9 1
          -5 10 1 -4 10 1
          -3 10 1 -2 10 1
          -1 10 1 0 10 1
          0 0 0 1 0 0
          2 0 0 3 0 0
          4 0 0 5 0 0
          0 1 0 1 1 0
          2 1 0 3 1 0
          4 1 0 5 1 0
          0 2 0 1 2 0
          2 2 0 3 2 0
          4 2 0 5 2 0
          0 3 0 1 3 0
          2 3 0 3 3 0
          4 3 0 5 3 0
          0 4 0 1 4 0
          2 4 0 3 4 0
          4 4 0 5 4 0
          0 5 0 1 5 0
          2 5 0 3 5 0
          4 5 0 5 5 0
          0 0 1 1 0 1
          2 0 1 3 0 1
          4 0 1 5 0 1
          0 1 1 1 1 1
          2 1 1 3 1 1
          4 1 1 5 1 1
          0 2 1 1 2 1
          2 2 1 3 2 1
          4 2 1 5 2 1
          0 3 1 1 3 1
          2 3 1 3 3 1
          4 3 1 5 3 1
          0 4 1 1 4 1
          2 4 1 3 4 1
          4 4 1 5 4 1
          0 5 1 1 5 1
          2 5 1 3 5 1
          4 5 1 5 5 1
          0 5 0 1 5 0
          2 5 0 3 5 0
          4 5 0 5 5 0
          0 6 0 1 6 0
          2 6 0 3 6 0
          4 6 0 5 6 0
          0 7 0 1 7 0
          2 7 0 3 7 0
          4 7 0 5 7 0
          0 8 0 1 8 0
          2 8 0 3 8 0
          4 8 0 5 8 0
          0 9 0 1 9 0
          2 9 0 3 9 0
          4 9 0 5 9 0
          0 10 0 1 10 0
          2 10 0 3 10 0
          4 10 0 5 10 0
          0 5 1 1 5 1
          2 5 1 3 5 1
          4 5 1 5 5 1
          0 6 1 1 6 1
          2 6 1 3 6 1
          4 6 1 5 6 1
          0 7 1 1 7 1
          2 7 1 3 7 1
          4 7 1 5 7 1
          0 8 1 1 8 1
          2 8 1 3 8 1
          4 8 1 5 8 1
          0 9 1 1 9 1
          2 9 1 3 9 1
          4 9 1 5 9 1
          0 10 1 1 10 1
          2 10 1 3 10 1
          4 10 1 5 10 1
          <InformationKey name="L2_NORM_RANGE" location="vtkDataArray" length="2">
            <Value index="0">
              0
            </Value>
            <Value index="1">
              11.22497216
            </Value>
          </InformationKey>
        </DataArray>
      </Points>
      <Cells>
        <DataArray type="Int64" Name="connectivity" format="ascii" RangeMin="0" RangeMax="275">
          0 1 7 6 66 67
          73 72 1 2 8 7
          67 68 74 73 2 3
          9 8 68 69 75 74
          3 4 10 9 69 70
          76 75 4 5 11 10
          70 71 77 76 6 7
          13 12 72 73 79 78
          7 8 14 13 73 74
          80 79 8 9 15 14
          74 75 81 80 9 10
          16 15 75 76 82 81
          10 11 17 16 76 77
          83 82 78 79 84 12
          13 18 84 79 85 18
          13 19 79 80 85 13
          14 19 85 80 86 19
          14 20 80 81 86 14
          15 20 86 81 87 20
          15 21 81 82 87 15
          16 21 87 82 88 21
          16 22 82 83 88 16
          17 22 88 83 89 22
          17 23 84 85 90 18
          19 24 90 85 91 24
          19 25 85 86 91 19
          20 25 91 86 92 25
          20 26 86 87 92 20
          21 26 92 87 93 26
          21 27 87 88 93 21
          22 27 93 88 94 27
          22 28 88 89 94 22
          23 28 94 89 95 28
          23 29 90 91 96 24
          25 30 96 91 97 30
          25 31 91 92 97 25
          26 31 97 92 98 31
          26 32 92 93 98 26
          27 32 98 93 99 32
          27 33 93 94 99 27
          28 33 99 94 100 33
          28 34 94 95 100 28
          29 34 100 95 101 34
          29 35 96 97 102 30
          31 36 102 97 103 36
          31 37 97 98 103 31
          32 37 103 98 104 37
          32 38 98 99 104 32
          33 38 104 99 105 38
          33 39 99 100 105 33
          34 39 105 100 106 39
          34 40 100 101 106 34
          35 40 106 101 107 40
          35 41 102 103 108 36
          37 42 108 103 109 42
          37 43 103 104 109 37
          38 43 109 104 110 43
          38 44 104 105 110 38
          39 44 110 105 111 44
          39 45 105 106 111 39
          40 45 111 106 112 45
          40 46 106 107 112 40
          41 46 112 107 113 46
          41 47 108 109 114 42
          43 48 114 109 115 48
          43 49 109 110 115 43
          44 49 115 110 116 49
          44 50 110 111 116 44
          45 50 116 111 117 50
          45 51 111 112 117 45
          46 51 117 112 118 51
          46 52 112 113 118 46
          47 52 118 113 119 52
          47 53 48 49 55 54
          114 115 121 120 49 50
          56 55 115 116 122 121
          50 51 57 56 116 117
          123 122 51 52 58 57
          117 118 124 123 52 53
          59 58 118 119 125 124
          54 120 60 55 121 61
          120 126 60 121 127 61
          55 121 61 56 122 62
          121 127 61 122 128 62
          56 122 62 57 123 63
          122 128 62 123 129 63
          57 123 63 58 124 64
          123 129 63 124 130 64
          58 124 64 59 125 65
          124 130 64 125 131 65
          132 133 139 138 168 169
          175 174 133 134 140 139
          169 170 176 175 134 135
          141 140 170 171 177 176
          135 136 142 141 171 172
          178 177 136 137 143 142
          172 173 179 178 174 175
          180 138 139 144 180 175
          181 144 139 145 175 176
          181 139 140 145 181 176
          182 145 140 146 176 177
          182 140 141 146 182 177
          183 146 141 147 177 178
          183 141 142 147 183 178
          184 147 142 148 178 179
          184 142 143 148 184 179
          185 148 143 149 180 181
          186 144 145 150 186 181
          187 150 145 151 181 182
          187 145 146 151 187 182
          188 151 146 152 182 183
          188 146 147 152 188 183
          189 152 147 153 183 184
          189 147 148 153 189 184
          190 153 148 154 184 185
          190 148 149 154 190 185
          191 154 149 155 150 151
          157 156 186 187 193 192
          151 152 158 157 187 188
          194 193 152 153 159 158
          188 189 195 194 153 154
          160 159 189 190 196 195
          154 155 161 160 190 191
          197 196 156 157 163 162
          192 193 199 198 157 158
          164 163 193 194 200 199
          158 159 165 164 194 195
          201 200 159 160 166 165
          195 196 202 201 160 161
          167 166 196 197 203 202
          204 205 211 210 240 241
          247 246 205 206 212 211
          241 242 248 247 206 207
          213 212 242 243 249 248
          207 208 214 213 243 244
          250 249 208 209 215 214
          244 245 251 250 210 211
          217 216 246 247 253 252
          211 212 218 217 247 248
          254 253 212 213 219 218
          248 249 255 254 213 214
          220 219 249 250 256 255
          214 215 221 220 250 251
          257 256 216 217 223 222
          252 253 259 258 217 218
          224 223 253 254 260 259
          218 219 225 224 254 255
          261 260 219 220 226 225
          255 256 262 261 220 221
          227 226 256 257 263 262
          222 223 229 228 258 259
          265 264 223 224 230 229
          259 260 266 265 224 225
          231 230 260 261 267 266
          225 226 232 231 261 262
          268 267 226 227 233 232
          262 263 269 268 228 264
          234 229 265 235 264 270
          234 265 271 235 229 265
          235 230 266 236 265 271
          235 266 272 236 230 266
          236 231 267 237 266 272
          236 267 273 237 231 267
          237 232 268 238 267 273
          237 268 274 238 232 268
          238 233 269 239 268 274
          238 269 275 239
        </DataArray>
        <DataArray type="Int64" Name="offsets" format="ascii" RangeMin="8" RangeMax="1000">
          8 16 24 32 40 48
          56 64 72 80 86 92
          98 104 110 116 122 128
          134 140 146 152 158 164
          170 176 182 188 194 200
          206 212 218 224 230 236
          242 248 254 260 266 272
          278 284 290 296 302 308
          314 320 326 332 338 344
          350 356 362 368 374 380
          386 392 398 404 410 416
          422 428 434 440 448 456
          464 472 480 486 492 498
          504 510 516 522 528 534
          540 548 556 564 572 580
          586 592 598 604 610 616
          622 628 634 640 646 652
          658 664 670 676 682 688
          694 700 708 716 724 732
          740 748 756 764 772 780
          788 796 804 812 820 828
          836 844 852 860 868 876
          884 892 900 908 916 924
          932 940 946 952 958 964
          970 976 982 988 994 1000
        </DataArray>
        <DataArray type="UInt8" Name="types" format="ascii" RangeMin="12" RangeMax="13">
          12 12 12 12 12 12
          12 12 12 12 13 13
          13 13 13 13 13 13
          13 13 13 13 13 13
          13 13 13 13 13 13
          13 13 13 13 13 13
          13 13 13 13 13 13
          13 13 13 13 13 13
          13 13 13 13 13 13
          13 13 13 13 13 13
          13 13 13 13 13 13
          13 13 13 13 12 12
          12 12 12 13 13 13
          13 13 13 13 13 13
          13 12 12 12 12 12
          13 13 13 13 13 13
          13 13 13 13 13 13
          13 13 13 13 13 13
          13 13 12 12 12 12
          12 12 12 12 12 12
          12 12 12 12 12 12
          12 12 12 12 12 12
          12 12 12 12 12 12
          12 12 13 13 13 13
          13 13 13 13 13 13
        </DataArray>
      </Cells>
    </Piece>
  </UnstructuredGrid>
</VTKFile>
