<?xml version="1.0"?>
<VTKFile type="UnstructuredGrid" version="0.1" byte_order="LittleEndian" header_type="UInt32" compressor="vtkZLibDataCompressor">
  <UnstructuredGrid>
    <Piece NumberOfPoints="32" NumberOfCells="16">
      <PointData>
        <DataArray type="Int32" Name="duplicated_nodes" NumberOfComponents="3" format="ascii">
          5 132 -1
          11 138 -1
          17 144 -1
          23 150 -1
          29 156 -1
          35 162 204
          41 210 -1
          47 216 -1
          53 222 -1
          59 228 -1
          65 234 -1
          71 168 -1
          77 174 -1
          83 180 -1
          89 186 -1
          95 192 -1
          101 198 240
          107 246 -1
          113 252 -1
          119 258 -1
          125 264 -1
          131 270 -1
          163 205 -1
          164 206 -1
          165 207 -1
          166 208 -1
          167 209 -1
          199 241 -1
          200 242 -1
          201 243 -1
          202 244 -1
          203 245 -1
        </DataArray>
      </PointData>
      <CellData>
        <DataArray type="Float32" Name="aperture" NumberOfComponents="1" format="ascii" RangeMin="0.0001" RangeMax="0.0001">
          0.0001
          0.0001
          0.0001
          0.0001
          0.0001
          0.0001
          0.0001
          0.0001
          0.0001
          0.0001
          0.0001
          0.0001
          0.0001
          0.0001
          0.0001
          0.0001
        </DataArray>
      </CellData>
      <Points>
        <DataArray type="Float32" Name="Points" NumberOfComponents="3" format="ascii" RangeMin="0" RangeMax="10.04987562112089">
          0 0 0
          0 1 0
          0 2 0
          0 3 0
          0 4 0
          0 5 0
          0 6 0
          0 7 0
          0 8 0
          0 9 0
          0 10 0
          0 0 1
          0 1 1
          0 2 1
          0 3 1
          0 4 1
          0 5 1
          0 6 1
          0 7 1
          0 8 1
          0 9 1
          0 10 1
          1 5 0
          2 5 0
          3 5 0
          4 5 0
          5 5 0
          1 5 1
          2 5 1
          3 5 1
          4 5 1
          5 5 1
          <InformationKey name="L2_NORM_RANGE" location="vtkDataArray" length="2">
            <Value index="0">
              0
            </Value>
            <Value index="1">
              10.049875621
            </Value>
          </InformationKey>
        </DataArray>
      </Points>
      <Cells>
        <DataArray type="Int64" Name="connectivity" format="ascii" RangeMin="0" RangeMax="31">
          0 1 12 11
          1 2 13 12
          2 3 14 13
          3 4 15 14
          4 5 16 15
          5 6 17 16
          6 7 18 17
          7 8 19 18
          8 9 20 19
          9 10 20
          10 21 20
          5 22 27 16
          22 23 28 27
          23 24 29 28
          24 25 30 29
          25 26 31 30
        </DataArray>
        <DataArray type="Int64" Name="offsets" format="ascii" RangeMin="4" RangeMax="60">
          4
          8
          12
          16
          20
          24
          28
          32
          36
          39
          42
          46
          50
          54
          58
          62
        </DataArray>
        <DataArray type="UInt8" Name="types" format="ascii" RangeMin="9" RangeMax="9">
          9
          9
          9
          9
          9
          9
          9
          9
          9
          5
          5
          9
          9
          9
          9
          9
        </DataArray>
      </Cells>
    </Piece>
  </UnstructuredGrid>
</VTKFile>
