# vtk DataFile Version 4.0
vtk domain
ASCII
DATASET STRUCTURED_GRID

FIELD FieldData 1
CellLabels 2 3 string
0
injector
1
domain
2 
producer

DIMENSIONS 11 11 2

POINTS 242 float
0	0	0
0.813797681	-0.160696902	0.558488889
1.627595363	-0.321393805	1.116977778
2.441393044	-0.482090707	1.675466668
3.255190725	-0.64278761	2.233955557
4.068988407	-0.803484512	2.792444446
4.882786088	-0.964181415	3.350933335
5.696583769	-1.124878317	3.909422225
6.510381451	-1.285575219	4.467911114
7.324179132	-1.446272122	5.026400003
8.137976813	-1.606969024	5.584888892
0.296198133	0.941511111	-0.160696902
1.109995814	0.780814208	0.397791987
1.923793495	0.620117306	0.956280876
2.737591177	0.459420404	1.514769765
3.551388858	0.298723501	2.073258654
4.365186539	0.138026599	2.631747544
5.178984221	-0.022670304	3.190236433
5.992781902	-0.183367206	3.748725322
6.806579584	-0.344064109	4.307214211
7.620377265	-0.504761011	4.865703101
8.434174946	-0.665457913	5.42419199
0.592396265	1.883022222	-0.321393805
1.406193947	1.722325319	0.237095084
2.219991628	1.561628417	0.795583974
3.03378931	1.400931514	1.354072863
3.847586991	1.240234612	1.912561752
4.661384672	1.079537709	2.471050641
5.475182354	0.918840807	3.02953953
6.288980035	0.758143905	3.58802842
7.102777716	0.597447002	4.146517309
7.916575398	0.4367501	4.705006198
8.730373079	0.276053197	5.263495087
0.888594398	2.824533332	-0.482090707
1.70239208	2.66383643	0.076398182
2.516189761	2.503139527	0.634887071
3.329987442	2.342442625	1.19337596
4.143785124	2.181745723	1.75186485
4.957582805	2.02104882	2.310353739
5.771380486	1.860351918	2.868842628
6.585178168	1.699655015	3.427331517
7.398975849	1.538958113	3.985820406
8.21277353	1.378261211	4.544309296
9.026571212	1.217564308	5.102798185
1.184792531	3.766044443	-0.64278761
1.998590212	3.605347541	-0.08429872
2.812387894	3.444650638	0.474190169
3.626185575	3.283953736	1.032679058
4.439983256	3.123256833	1.591167947
5.253780938	2.962559931	2.149656836
6.067578619	2.801863029	2.708145726
6.8813763	2.641166126	3.266634615
7.695173982	2.480469224	3.825123504
8.508971663	2.319772321	4.383612393
9.322769344	2.159075419	4.942101283
1.480990664	4.707555554	-0.803484512
2.294788345	4.546858651	-0.244995623
3.108586026	4.386161749	0.313493266
3.922383708	4.225464847	0.871982156
4.736181389	4.064767944	1.430471045
5.54997907	3.904071042	1.988959934
6.363776752	3.743374139	2.547448823
7.177574433	3.582677237	3.105937712
7.991372114	3.421980335	3.664426602
8.805169796	3.261283432	4.222915491
9.618967477	3.10058653	4.78140438
1.777188796	5.649066665	-0.964181415
2.590986478	5.488369762	-0.405692525
3.404784159	5.32767286	0.152796364
4.21858184	5.166975957	0.711285253
5.032379522	5.006279055	1.269774142
5.846177203	4.845582153	1.828263032
6.659974884	4.68488525	2.386751921
7.473772566	4.524188348	2.94524081
8.287570247	4.363491445	3.503729699
9.101367929	4.202794543	4.062218588
9.91516561	4.04209764	4.620707478
2.073386929	6.590577775	-1.124878317
2.88718461	6.429880873	-0.566389428
3.700982292	6.269183971	-0.007900539
4.514779973	6.108487068	0.550588351
5.328577654	5.947790166	1.10907724
6.142375336	5.787093263	1.667566129
6.956173017	5.626396361	2.226055018
7.769970699	5.465699459	2.784543908
8.58376838	5.305002556	3.343032797
9.397566061	5.144305654	3.901521686
10.21136374	4.983608751	4.460010575
2.369585062	7.532088886	-1.285575219
3.183382743	7.371391984	-0.72708633
3.997180425	7.210695081	-0.168597441
4.810978106	7.049998179	0.389891448
5.624775787	6.889301277	0.948380338
6.438573469	6.728604374	1.506869227
7.25237115	6.567907472	2.065358116
8.066168831	6.407210569	2.623847005
8.879966513	6.246513667	3.182335894
9.693764194	6.085816764	3.740824784
10.50756188	5.925119862	4.299313673
2.665783195	8.473599997	-1.446272122
3.479580876	8.312903095	-0.887783233
4.293378557	8.152206192	-0.329294343
5.107176239	7.99150929	0.229194546
5.92097392	7.830812387	0.787683435
6.734771601	7.670115485	1.346172324
7.548569283	7.509418582	1.904661214
8.362366964	7.34872168	2.463150103
9.176164645	7.188024778	3.021638992
9.989962327	7.027327875	3.580127881
10.80376001	6.866630973	4.13861677
2.961981327	9.415111108	-1.606969024
3.775779009	9.254414205	-1.048480135
4.58957669	9.093717303	-0.489991246
5.403374371	8.933020401	0.068497643
6.217172053	8.772323498	0.626986533
7.030969734	8.611626596	1.185475422
7.844767415	8.450929693	1.743964311
8.658565097	8.290232791	2.3024532
9.472362778	8.129535888	2.86094209
10.28616046	7.968838986	3.419430979
11.09995814	7.808142084	3.977919868
-0.5	0.296198133	0.813797681
0.313797681	0.13550123	1.372286571
1.127595363	-0.025195672	1.93077546
1.941393044	-0.185892575	2.489264349
2.755190725	-0.346589477	3.047753238
3.568988407	-0.507286379	3.606242127
4.382786088	-0.667983282	4.164731017
5.196583769	-0.828680184	4.723219906
6.010381451	-0.989377087	5.281708795
6.824179132	-1.150073989	5.840197684
7.637976813	-1.310770891	6.398686574
-0.203801867	1.237709244	0.653100779
0.609995814	1.077012341	1.211589668
1.423793495	0.916315439	1.770078557
2.237591177	0.755618536	2.328567447
3.051388858	0.594921634	2.887056336
3.865186539	0.434224731	3.445545225
4.678984221	0.273527829	4.004034114
5.492781902	0.112830927	4.562523003
6.306579584	-0.047865976	5.121011893
7.120377265	-0.208562878	5.679500782
7.934174946	-0.369259781	6.237989671
0.092396265	2.179220354	0.492403877
0.906193947	2.018523452	1.050892766
1.719991628	1.857826549	1.609381655
2.53378931	1.697129647	2.167870544
3.347586991	1.536432745	2.726359433
4.161384672	1.375735842	3.284848323
4.975182354	1.21503894	3.843337212
5.788980035	1.054342037	4.401826101
6.602777716	0.893645135	4.96031499
7.416575398	0.732948232	5.518803879
8.230373079	0.57225133	6.077292769
0.388594398	3.120731465	0.331706974
1.20239208	2.960034563	0.890195863
2.016189761	2.79933766	1.448684753
2.829987442	2.638640758	2.007173642
3.643785124	2.477943855	2.565662531
4.457582805	2.317246953	3.12415142
5.271380486	2.156550051	3.682640309
6.085178168	1.995853148	4.241129199
6.898975849	1.835156246	4.799618088
7.71277353	1.674459343	5.358106977
8.526571212	1.513762441	5.916595866
0.684792531	4.062242576	0.171010072
1.498590212	3.901545673	0.729498961
2.312387894	3.740848771	1.28798785
3.126185575	3.580151869	1.846476739
3.939983256	3.419454966	2.404965629
4.753780938	3.258758064	2.963454518
5.567578619	3.098061161	3.521943407
6.3813763	2.937364259	4.080432296
7.195173982	2.776667356	4.638921185
8.008971663	2.615970454	5.197410075
8.822769344	2.455273552	5.755898964
0.980990664	5.003753687	0.010313169
1.794788345	4.843056784	0.568802058
2.608586026	4.682359882	1.127290948
3.422383708	4.521662979	1.685779837
4.236181389	4.360966077	2.244268726
5.04997907	4.200269175	2.802757615
5.863776752	4.039572272	3.361246505
6.677574433	3.87887537	3.919735394
7.491372114	3.718178467	4.478224283
8.305169796	3.557481565	5.036713172
9.118967477	3.396784662	5.595202061
1.277188796	5.945264797	-0.150383733
2.090986478	5.784567895	0.408105156
2.904784159	5.623870993	0.966594045
3.71858184	5.46317409	1.525082934
4.532379522	5.302477188	2.083571824
5.346177203	5.141780285	2.642060713
6.159974884	4.981083383	3.200549602
6.973772566	4.82038648	3.759038491
7.787570247	4.659689578	4.317527381
8.601367929	4.498992676	4.87601627
9.41516561	4.338295773	5.434505159
1.573386929	6.886775908	-0.311080636
2.38718461	6.726079006	0.247408254
3.200982292	6.565382103	0.805897143
4.014779973	6.404685201	1.364386032
4.828577654	6.243988298	1.922874921
5.642375336	6.083291396	2.48136381
6.456173017	5.922594494	3.0398527
7.269970699	5.761897591	3.598341589
8.08376838	5.601200689	4.156830478
8.897566061	5.440503786	4.715319367
9.711363743	5.279806884	5.273808257
1.869585062	7.828287019	-0.471777538
2.683382743	7.667590117	0.086711351
3.497180425	7.506893214	0.64520024
4.310978106	7.346196312	1.20368913
5.124775787	7.185499409	1.762178019
5.938573469	7.024802507	2.320666908
6.75237115	6.864105604	2.879155797
7.566168831	6.703408702	3.437644687
8.379966513	6.5427118	3.996133576
9.193764194	6.382014897	4.554622465
10.00756188	6.221317995	5.113111354
2.165783195	8.76979813	-0.63247444
2.979580876	8.609101227	-0.073985551
3.793378557	8.448404325	0.484503338
4.607176239	8.287707422	1.042992227
5.42097392	8.12701052	1.601481116
6.234771601	7.966313618	2.159970006
7.048569283	7.805616715	2.718458895
7.862366964	7.644919813	3.276947784
8.676164645	7.48422291	3.835436673
9.489962327	7.323526008	4.393925563
10.30376001	7.162829106	4.952414452
2.461981327	9.711309241	-0.793171343
3.275779009	9.550612338	-0.234682454
4.08957669	9.389915436	0.323806436
4.903374371	9.229218533	0.882295325
5.717172053	9.068521631	1.440784214
6.530969734	8.907824728	1.999273103
7.344767415	8.747127826	2.557761992
8.158565097	8.586430924	3.116250882
8.972362778	8.425734021	3.674739771
9.786160459	8.265037119	4.23322866
10.59995814	8.104340216	4.791717549

CELL_DATA 100
SCALARS attribute int 1
LOOKUP_TABLE default
0 1 1 1 1 1 1 1 1 1
1 1 1 1 1 1 1 1 1 1
1 1 1 1 1 1 1 1 1 1
1 1 1 1 1 1 1 1 1 1
1 1 1 1 1 1 1 1 1 1
1 1 1 1 1 1 1 1 1 1
1 1 1 1 1 1 1 1 1 1
1 1 1 1 1 1 1 1 1 1
1 1 1 1 1 1 1 1 1 1
1 1 1 1 1 1 1 1 1 2
