-- The following file was written from MATLAB using the MRST toolbox.

SPECGRID
10 10 3 1 F
/

COORD
    0.000000     0.000000  8325.000000     0.000000     0.000000  8425.000000 
 1000.000000     0.000000  8325.000000  1000.000000     0.000000  8425.000000 
 2000.000000     0.000000  8325.000000  2000.000000     0.000000  8425.000000 
 3000.000000     0.000000  8325.000000  3000.000000     0.000000  8425.000000 
 4000.000000     0.000000  8325.000000  4000.000000     0.000000  8425.000000 
 5000.000000     0.000000  8325.000000  5000.000000     0.000000  8425.000000 
 6000.000000     0.000000  8325.000000  6000.000000     0.000000  8425.000000 
 7000.000000     0.000000  8325.000000  7000.000000     0.000000  8425.000000 
 8000.000000     0.000000  8325.000000  8000.000000     0.000000  8425.000000 
 9000.000000     0.000000  8325.000000  9000.000000     0.000000  8425.000000 
10000.000000     0.000000  8325.000000 10000.000000     0.000000  8425.000000 
    0.000000  1000.000000  8325.000000     0.000000  1000.000000  8425.000000 
 1000.000000  1000.000000  8325.000000  1000.000000  1000.000000  8425.000000 
 2000.000000  1000.000000  8325.000000  2000.000000  1000.000000  8425.000000 
 3000.000000  1000.000000  8325.000000  3000.000000  1000.000000  8425.000000 
 4000.000000  1000.000000  8325.000000  4000.000000  1000.000000  8425.000000 
 5000.000000  1000.000000  8325.000000  5000.000000  1000.000000  8425.000000 
 6000.000000  1000.000000  8325.000000  6000.000000  1000.000000  8425.000000 
 7000.000000  1000.000000  8325.000000  7000.000000  1000.000000  8425.000000 
 8000.000000  1000.000000  8325.000000  8000.000000  1000.000000  8425.000000 
 9000.000000  1000.000000  8325.000000  9000.000000  1000.000000  8425.000000 
10000.000000  1000.000000  8325.000000 10000.000000  1000.000000  8425.000000 
    0.000000  2000.000000  8325.000000     0.000000  2000.000000  8425.000000 
 1000.000000  2000.000000  8325.000000  1000.000000  2000.000000  8425.000000 
 2000.000000  2000.000000  8325.000000  2000.000000  2000.000000  8425.000000 
 3000.000000  2000.000000  8325.000000  3000.000000  2000.000000  8425.000000 
 4000.000000  2000.000000  8325.000000  4000.000000  2000.000000  8425.000000 
 5000.000000  2000.000000  8325.000000  5000.000000  2000.000000  8425.000000 
 6000.000000  2000.000000  8325.000000  6000.000000  2000.000000  8425.000000 
 7000.000000  2000.000000  8325.000000  7000.000000  2000.000000  8425.000000 
 8000.000000  2000.000000  8325.000000  8000.000000  2000.000000  8425.000000 
 9000.000000  2000.000000  8325.000000  9000.000000  2000.000000  8425.000000 
10000.000000  2000.000000  8325.000000 10000.000000  2000.000000  8425.000000 
    0.000000  3000.000000  8325.000000     0.000000  3000.000000  8425.000000 
 1000.000000  3000.000000  8325.000000  1000.000000  3000.000000  8425.000000 
 2000.000000  3000.000000  8325.000000  2000.000000  3000.000000  8425.000000 
 3000.000000  3000.000000  8325.000000  3000.000000  3000.000000  8425.000000 
 4000.000000  3000.000000  8325.000000  4000.000000  3000.000000  8425.000000 
 5000.000000  3000.000000  8325.000000  5000.000000  3000.000000  8425.000000 
 6000.000000  3000.000000  8325.000000  6000.000000  3000.000000  8425.000000 
 7000.000000  3000.000000  8325.000000  7000.000000  3000.000000  8425.000000 
 8000.000000  3000.000000  8325.000000  8000.000000  3000.000000  8425.000000 
 9000.000000  3000.000000  8325.000000  9000.000000  3000.000000  8425.000000 
10000.000000  3000.000000  8325.000000 10000.000000  3000.000000  8425.000000 
    0.000000  4000.000000  8325.000000     0.000000  4000.000000  8425.000000 
 1000.000000  4000.000000  8325.000000  1000.000000  4000.000000  8425.000000 
 2000.000000  4000.000000  8325.000000  2000.000000  4000.000000  8425.000000 
 3000.000000  4000.000000  8325.000000  3000.000000  4000.000000  8425.000000 
 4000.000000  4000.000000  8325.000000  4000.000000  4000.000000  8425.000000 
 5000.000000  4000.000000  8325.000000  5000.000000  4000.000000  8425.000000 
 6000.000000  4000.000000  8325.000000  6000.000000  4000.000000  8425.000000 
 7000.000000  4000.000000  8325.000000  7000.000000  4000.000000  8425.000000 
 8000.000000  4000.000000  8325.000000  8000.000000  4000.000000  8425.000000 
 9000.000000  4000.000000  8325.000000  9000.000000  4000.000000  8425.000000 
10000.000000  4000.000000  8325.000000 10000.000000  4000.000000  8425.000000 
    0.000000  5000.000000  8325.000000     0.000000  5000.000000  8425.000000 
 1000.000000  5000.000000  8325.000000  1000.000000  5000.000000  8425.000000 
 2000.000000  5000.000000  8325.000000  2000.000000  5000.000000  8425.000000 
 3000.000000  5000.000000  8325.000000  3000.000000  5000.000000  8425.000000 
 4000.000000  5000.000000  8325.000000  4000.000000  5000.000000  8425.000000 
 5000.000000  5000.000000  8325.000000  5000.000000  5000.000000  8425.000000 
 6000.000000  5000.000000  8325.000000  6000.000000  5000.000000  8425.000000 
 7000.000000  5000.000000  8325.000000  7000.000000  5000.000000  8425.000000 
 8000.000000  5000.000000  8325.000000  8000.000000  5000.000000  8425.000000 
 9000.000000  5000.000000  8325.000000  9000.000000  5000.000000  8425.000000 
10000.000000  5000.000000  8325.000000 10000.000000  5000.000000  8425.000000 
    0.000000  6000.000000  8325.000000     0.000000  6000.000000  8425.000000 
 1000.000000  6000.000000  8325.000000  1000.000000  6000.000000  8425.000000 
 2000.000000  6000.000000  8325.000000  2000.000000  6000.000000  8425.000000 
 3000.000000  6000.000000  8325.000000  3000.000000  6000.000000  8425.000000 
 4000.000000  6000.000000  8325.000000  4000.000000  6000.000000  8425.000000 
 5000.000000  6000.000000  8325.000000  5000.000000  6000.000000  8425.000000 
 6000.000000  6000.000000  8325.000000  6000.000000  6000.000000  8425.000000 
 7000.000000  6000.000000  8325.000000  7000.000000  6000.000000  8425.000000 
 8000.000000  6000.000000  8325.000000  8000.000000  6000.000000  8425.000000 
 9000.000000  6000.000000  8325.000000  9000.000000  6000.000000  8425.000000 
10000.000000  6000.000000  8325.000000 10000.000000  6000.000000  8425.000000 
    0.000000  7000.000000  8325.000000     0.000000  7000.000000  8425.000000 
 1000.000000  7000.000000  8325.000000  1000.000000  7000.000000  8425.000000 
 2000.000000  7000.000000  8325.000000  2000.000000  7000.000000  8425.000000 
 3000.000000  7000.000000  8325.000000  3000.000000  7000.000000  8425.000000 
 4000.000000  7000.000000  8325.000000  4000.000000  7000.000000  8425.000000 
 5000.000000  7000.000000  8325.000000  5000.000000  7000.000000  8425.000000 
 6000.000000  7000.000000  8325.000000  6000.000000  7000.000000  8425.000000 
 7000.000000  7000.000000  8325.000000  7000.000000  7000.000000  8425.000000 
 8000.000000  7000.000000  8325.000000  8000.000000  7000.000000  8425.000000 
 9000.000000  7000.000000  8325.000000  9000.000000  7000.000000  8425.000000 
10000.000000  7000.000000  8325.000000 10000.000000  7000.000000  8425.000000 
    0.000000  8000.000000  8325.000000     0.000000  8000.000000  8425.000000 
 1000.000000  8000.000000  8325.000000  1000.000000  8000.000000  8425.000000 
 2000.000000  8000.000000  8325.000000  2000.000000  8000.000000  8425.000000 
 3000.000000  8000.000000  8325.000000  3000.000000  8000.000000  8425.000000 
 4000.000000  8000.000000  8325.000000  4000.000000  8000.000000  8425.000000 
 5000.000000  8000.000000  8325.000000  5000.000000  8000.000000  8425.000000 
 6000.000000  8000.000000  8325.000000  6000.000000  8000.000000  8425.000000 
 7000.000000  8000.000000  8325.000000  7000.000000  8000.000000  8425.000000 
 8000.000000  8000.000000  8325.000000  8000.000000  8000.000000  8425.000000 
 9000.000000  8000.000000  8325.000000  9000.000000  8000.000000  8425.000000 
10000.000000  8000.000000  8325.000000 10000.000000  8000.000000  8425.000000 
    0.000000  9000.000000  8325.000000     0.000000  9000.000000  8425.000000 
 1000.000000  9000.000000  8325.000000  1000.000000  9000.000000  8425.000000 
 2000.000000  9000.000000  8325.000000  2000.000000  9000.000000  8425.000000 
 3000.000000  9000.000000  8325.000000  3000.000000  9000.000000  8425.000000 
 4000.000000  9000.000000  8325.000000  4000.000000  9000.000000  8425.000000 
 5000.000000  9000.000000  8325.000000  5000.000000  9000.000000  8425.000000 
 6000.000000  9000.000000  8325.000000  6000.000000  9000.000000  8425.000000 
 7000.000000  9000.000000  8325.000000  7000.000000  9000.000000  8425.000000 
 8000.000000  9000.000000  8325.000000  8000.000000  9000.000000  8425.000000 
 9000.000000  9000.000000  8325.000000  9000.000000  9000.000000  8425.000000 
10000.000000  9000.000000  8325.000000 10000.000000  9000.000000  8425.000000 
    0.000000 10000.000000  8325.000000     0.000000 10000.000000  8425.000000 
 1000.000000 10000.000000  8325.000000  1000.000000 10000.000000  8425.000000 
 2000.000000 10000.000000  8325.000000  2000.000000 10000.000000  8425.000000 
 3000.000000 10000.000000  8325.000000  3000.000000 10000.000000  8425.000000 
 4000.000000 10000.000000  8325.000000  4000.000000 10000.000000  8425.000000 
 5000.000000 10000.000000  8325.000000  5000.000000 10000.000000  8425.000000 
 6000.000000 10000.000000  8325.000000  6000.000000 10000.000000  8425.000000 
 7000.000000 10000.000000  8325.000000  7000.000000 10000.000000  8425.000000 
 8000.000000 10000.000000  8325.000000  8000.000000 10000.000000  8425.000000 
 9000.000000 10000.000000  8325.000000  9000.000000 10000.000000  8425.000000 
10000.000000 10000.000000  8325.000000 10000.000000 10000.000000  8425.000000 
/

ZCORN
 8325.000000  8325.000000  8325.000000  8325.000000  8325.000000  8325.000000  8325.000000  8325.000000 
 8325.000000  8325.000000  8325.000000  8325.000000  8325.000000  8325.000000  8325.000000  8325.000000 
 8325.000000  8325.000000  8325.000000  8325.000000  8325.000000  8325.000000  8325.000000  8325.000000 
 8325.000000  8325.000000  8325.000000  8325.000000  8325.000000  8325.000000  8325.000000  8325.000000 
 8325.000000  8325.000000  8325.000000  8325.000000  8325.000000  8325.000000  8325.000000  8325.000000 
 8325.000000  8325.000000  8325.000000  8325.000000  8325.000000  8325.000000  8325.000000  8325.000000 
 8325.000000  8325.000000  8325.000000  8325.000000  8325.000000  8325.000000  8325.000000  8325.000000 
 8325.000000  8325.000000  8325.000000  8325.000000  8325.000000  8325.000000  8325.000000  8325.000000 
 8325.000000  8325.000000  8325.000000  8325.000000  8325.000000  8325.000000  8325.000000  8325.000000 
 8325.000000  8325.000000  8325.000000  8325.000000  8325.000000  8325.000000  8325.000000  8325.000000 
 8325.000000  8325.000000  8325.000000  8325.000000  8325.000000  8325.000000  8325.000000  8325.000000 
 8325.000000  8325.000000  8325.000000  8325.000000  8325.000000  8325.000000  8325.000000  8325.000000 
 8325.000000  8325.000000  8325.000000  8325.000000  8325.000000  8325.000000  8325.000000  8325.000000 
 8325.000000  8325.000000  8325.000000  8325.000000  8325.000000  8325.000000  8325.000000  8325.000000 
 8325.000000  8325.000000  8325.000000  8325.000000  8325.000000  8325.000000  8325.000000  8325.000000 
 8325.000000  8325.000000  8325.000000  8325.000000  8325.000000  8325.000000  8325.000000  8325.000000 
 8325.000000  8325.000000  8325.000000  8325.000000  8325.000000  8325.000000  8325.000000  8325.000000 
 8325.000000  8325.000000  8325.000000  8325.000000  8325.000000  8325.000000  8325.000000  8325.000000 
 8325.000000  8325.000000  8325.000000  8325.000000  8325.000000  8325.000000  8325.000000  8325.000000 
 8325.000000  8325.000000  8325.000000  8325.000000  8325.000000  8325.000000  8325.000000  8325.000000 
 8325.000000  8325.000000  8325.000000  8325.000000  8325.000000  8325.000000  8325.000000  8325.000000 
 8325.000000  8325.000000  8325.000000  8325.000000  8325.000000  8325.000000  8325.000000  8325.000000 
 8325.000000  8325.000000  8325.000000  8325.000000  8325.000000  8325.000000  8325.000000  8325.000000 
 8325.000000  8325.000000  8325.000000  8325.000000  8325.000000  8325.000000  8325.000000  8325.000000 
 8325.000000  8325.000000  8325.000000  8325.000000  8325.000000  8325.000000  8325.000000  8325.000000 
 8325.000000  8325.000000  8325.000000  8325.000000  8325.000000  8325.000000  8325.000000  8325.000000 
 8325.000000  8325.000000  8325.000000  8325.000000  8325.000000  8325.000000  8325.000000  8325.000000 
 8325.000000  8325.000000  8325.000000  8325.000000  8325.000000  8325.000000  8325.000000  8325.000000 
 8325.000000  8325.000000  8325.000000  8325.000000  8325.000000  8325.000000  8325.000000  8325.000000 
 8325.000000  8325.000000  8325.000000  8325.000000  8325.000000  8325.000000  8325.000000  8325.000000 
 8325.000000  8325.000000  8325.000000  8325.000000  8325.000000  8325.000000  8325.000000  8325.000000 
 8325.000000  8325.000000  8325.000000  8325.000000  8325.000000  8325.000000  8325.000000  8325.000000 
 8325.000000  8325.000000  8325.000000  8325.000000  8325.000000  8325.000000  8325.000000  8325.000000 
 8325.000000  8325.000000  8325.000000  8325.000000  8325.000000  8325.000000  8325.000000  8325.000000 
 8325.000000  8325.000000  8325.000000  8325.000000  8325.000000  8325.000000  8325.000000  8325.000000 
 8325.000000  8325.000000  8325.000000  8325.000000  8325.000000  8325.000000  8325.000000  8325.000000 
 8325.000000  8325.000000  8325.000000  8325.000000  8325.000000  8325.000000  8325.000000  8325.000000 
 8325.000000  8325.000000  8325.000000  8325.000000  8325.000000  8325.000000  8325.000000  8325.000000 
 8325.000000  8325.000000  8325.000000  8325.000000  8325.000000  8325.000000  8325.000000  8325.000000 
 8325.000000  8325.000000  8325.000000  8325.000000  8325.000000  8325.000000  8325.000000  8325.000000 
 8325.000000  8325.000000  8325.000000  8325.000000  8325.000000  8325.000000  8325.000000  8325.000000 
 8325.000000  8325.000000  8325.000000  8325.000000  8325.000000  8325.000000  8325.000000  8325.000000 
 8325.000000  8325.000000  8325.000000  8325.000000  8325.000000  8325.000000  8325.000000  8325.000000 
 8325.000000  8325.000000  8325.000000  8325.000000  8325.000000  8325.000000  8325.000000  8325.000000 
 8325.000000  8325.000000  8325.000000  8325.000000  8325.000000  8325.000000  8325.000000  8325.000000 
 8325.000000  8325.000000  8325.000000  8325.000000  8325.000000  8325.000000  8325.000000  8325.000000 
 8325.000000  8325.000000  8325.000000  8325.000000  8325.000000  8325.000000  8325.000000  8325.000000 
 8325.000000  8325.000000  8325.000000  8325.000000  8325.000000  8325.000000  8325.000000  8325.000000 
 8325.000000  8325.000000  8325.000000  8325.000000  8325.000000  8325.000000  8325.000000  8325.000000 
 8325.000000  8325.000000  8325.000000  8325.000000  8325.000000  8325.000000  8325.000000  8325.000000 
 8345.000000  8345.000000  8345.000000  8345.000000  8345.000000  8345.000000  8345.000000  8345.000000 
 8345.000000  8345.000000  8345.000000  8345.000000  8345.000000  8345.000000  8345.000000  8345.000000 
 8345.000000  8345.000000  8345.000000  8345.000000  8345.000000  8345.000000  8345.000000  8345.000000 
 8345.000000  8345.000000  8345.000000  8345.000000  8345.000000  8345.000000  8345.000000  8345.000000 
 8345.000000  8345.000000  8345.000000  8345.000000  8345.000000  8345.000000  8345.000000  8345.000000 
 8345.000000  8345.000000  8345.000000  8345.000000  8345.000000  8345.000000  8345.000000  8345.000000 
 8345.000000  8345.000000  8345.000000  8345.000000  8345.000000  8345.000000  8345.000000  8345.000000 
 8345.000000  8345.000000  8345.000000  8345.000000  8345.000000  8345.000000  8345.000000  8345.000000 
 8345.000000  8345.000000  8345.000000  8345.000000  8345.000000  8345.000000  8345.000000  8345.000000 
 8345.000000  8345.000000  8345.000000  8345.000000  8345.000000  8345.000000  8345.000000  8345.000000 
 8345.000000  8345.000000  8345.000000  8345.000000  8345.000000  8345.000000  8345.000000  8345.000000 
 8345.000000  8345.000000  8345.000000  8345.000000  8345.000000  8345.000000  8345.000000  8345.000000 
 8345.000000  8345.000000  8345.000000  8345.000000  8345.000000  8345.000000  8345.000000  8345.000000 
 8345.000000  8345.000000  8345.000000  8345.000000  8345.000000  8345.000000  8345.000000  8345.000000 
 8345.000000  8345.000000  8345.000000  8345.000000  8345.000000  8345.000000  8345.000000  8345.000000 
 8345.000000  8345.000000  8345.000000  8345.000000  8345.000000  8345.000000  8345.000000  8345.000000 
 8345.000000  8345.000000  8345.000000  8345.000000  8345.000000  8345.000000  8345.000000  8345.000000 
 8345.000000  8345.000000  8345.000000  8345.000000  8345.000000  8345.000000  8345.000000  8345.000000 
 8345.000000  8345.000000  8345.000000  8345.000000  8345.000000  8345.000000  8345.000000  8345.000000 
 8345.000000  8345.000000  8345.000000  8345.000000  8345.000000  8345.000000  8345.000000  8345.000000 
 8345.000000  8345.000000  8345.000000  8345.000000  8345.000000  8345.000000  8345.000000  8345.000000 
 8345.000000  8345.000000  8345.000000  8345.000000  8345.000000  8345.000000  8345.000000  8345.000000 
 8345.000000  8345.000000  8345.000000  8345.000000  8345.000000  8345.000000  8345.000000  8345.000000 
 8345.000000  8345.000000  8345.000000  8345.000000  8345.000000  8345.000000  8345.000000  8345.000000 
 8345.000000  8345.000000  8345.000000  8345.000000  8345.000000  8345.000000  8345.000000  8345.000000 
 8345.000000  8345.000000  8345.000000  8345.000000  8345.000000  8345.000000  8345.000000  8345.000000 
 8345.000000  8345.000000  8345.000000  8345.000000  8345.000000  8345.000000  8345.000000  8345.000000 
 8345.000000  8345.000000  8345.000000  8345.000000  8345.000000  8345.000000  8345.000000  8345.000000 
 8345.000000  8345.000000  8345.000000  8345.000000  8345.000000  8345.000000  8345.000000  8345.000000 
 8345.000000  8345.000000  8345.000000  8345.000000  8345.000000  8345.000000  8345.000000  8345.000000 
 8345.000000  8345.000000  8345.000000  8345.000000  8345.000000  8345.000000  8345.000000  8345.000000 
 8345.000000  8345.000000  8345.000000  8345.000000  8345.000000  8345.000000  8345.000000  8345.000000 
 8345.000000  8345.000000  8345.000000  8345.000000  8345.000000  8345.000000  8345.000000  8345.000000 
 8345.000000  8345.000000  8345.000000  8345.000000  8345.000000  8345.000000  8345.000000  8345.000000 
 8345.000000  8345.000000  8345.000000  8345.000000  8345.000000  8345.000000  8345.000000  8345.000000 
 8345.000000  8345.000000  8345.000000  8345.000000  8345.000000  8345.000000  8345.000000  8345.000000 
 8345.000000  8345.000000  8345.000000  8345.000000  8345.000000  8345.000000  8345.000000  8345.000000 
 8345.000000  8345.000000  8345.000000  8345.000000  8345.000000  8345.000000  8345.000000  8345.000000 
 8345.000000  8345.000000  8345.000000  8345.000000  8345.000000  8345.000000  8345.000000  8345.000000 
 8345.000000  8345.000000  8345.000000  8345.000000  8345.000000  8345.000000  8345.000000  8345.000000 
 8345.000000  8345.000000  8345.000000  8345.000000  8345.000000  8345.000000  8345.000000  8345.000000 
 8345.000000  8345.000000  8345.000000  8345.000000  8345.000000  8345.000000  8345.000000  8345.000000 
 8345.000000  8345.000000  8345.000000  8345.000000  8345.000000  8345.000000  8345.000000  8345.000000 
 8345.000000  8345.000000  8345.000000  8345.000000  8345.000000  8345.000000  8345.000000  8345.000000 
 8345.000000  8345.000000  8345.000000  8345.000000  8345.000000  8345.000000  8345.000000  8345.000000 
 8345.000000  8345.000000  8345.000000  8345.000000  8345.000000  8345.000000  8345.000000  8345.000000 
 8345.000000  8345.000000  8345.000000  8345.000000  8345.000000  8345.000000  8345.000000  8345.000000 
 8345.000000  8345.000000  8345.000000  8345.000000  8345.000000  8345.000000  8345.000000  8345.000000 
 8345.000000  8345.000000  8345.000000  8345.000000  8345.000000  8345.000000  8345.000000  8345.000000 
 8345.000000  8345.000000  8345.000000  8345.000000  8345.000000  8345.000000  8345.000000  8345.000000 
 8345.000000  8345.000000  8345.000000  8345.000000  8345.000000  8345.000000  8345.000000  8345.000000 
 8345.000000  8345.000000  8345.000000  8345.000000  8345.000000  8345.000000  8345.000000  8345.000000 
 8345.000000  8345.000000  8345.000000  8345.000000  8345.000000  8345.000000  8345.000000  8345.000000 
 8345.000000  8345.000000  8345.000000  8345.000000  8345.000000  8345.000000  8345.000000  8345.000000 
 8345.000000  8345.000000  8345.000000  8345.000000  8345.000000  8345.000000  8345.000000  8345.000000 
 8345.000000  8345.000000  8345.000000  8345.000000  8345.000000  8345.000000  8345.000000  8345.000000 
 8345.000000  8345.000000  8345.000000  8345.000000  8345.000000  8345.000000  8345.000000  8345.000000 
 8345.000000  8345.000000  8345.000000  8345.000000  8345.000000  8345.000000  8345.000000  8345.000000 
 8345.000000  8345.000000  8345.000000  8345.000000  8345.000000  8345.000000  8345.000000  8345.000000 
 8345.000000  8345.000000  8345.000000  8345.000000  8345.000000  8345.000000  8345.000000  8345.000000 
 8345.000000  8345.000000  8345.000000  8345.000000  8345.000000  8345.000000  8345.000000  8345.000000 
 8345.000000  8345.000000  8345.000000  8345.000000  8345.000000  8345.000000  8345.000000  8345.000000 
 8345.000000  8345.000000  8345.000000  8345.000000  8345.000000  8345.000000  8345.000000  8345.000000 
 8345.000000  8345.000000  8345.000000  8345.000000  8345.000000  8345.000000  8345.000000  8345.000000 
 8345.000000  8345.000000  8345.000000  8345.000000  8345.000000  8345.000000  8345.000000  8345.000000 
 8345.000000  8345.000000  8345.000000  8345.000000  8345.000000  8345.000000  8345.000000  8345.000000 
 8345.000000  8345.000000  8345.000000  8345.000000  8345.000000  8345.000000  8345.000000  8345.000000 
 8345.000000  8345.000000  8345.000000  8345.000000  8345.000000  8345.000000  8345.000000  8345.000000 
 8345.000000  8345.000000  8345.000000  8345.000000  8345.000000  8345.000000  8345.000000  8345.000000 
 8345.000000  8345.000000  8345.000000  8345.000000  8345.000000  8345.000000  8345.000000  8345.000000 
 8345.000000  8345.000000  8345.000000  8345.000000  8345.000000  8345.000000  8345.000000  8345.000000 
 8345.000000  8345.000000  8345.000000  8345.000000  8345.000000  8345.000000  8345.000000  8345.000000 
 8345.000000  8345.000000  8345.000000  8345.000000  8345.000000  8345.000000  8345.000000  8345.000000 
 8345.000000  8345.000000  8345.000000  8345.000000  8345.000000  8345.000000  8345.000000  8345.000000 
 8345.000000  8345.000000  8345.000000  8345.000000  8345.000000  8345.000000  8345.000000  8345.000000 
 8345.000000  8345.000000  8345.000000  8345.000000  8345.000000  8345.000000  8345.000000  8345.000000 
 8345.000000  8345.000000  8345.000000  8345.000000  8345.000000  8345.000000  8345.000000  8345.000000 
 8345.000000  8345.000000  8345.000000  8345.000000  8345.000000  8345.000000  8345.000000  8345.000000 
 8345.000000  8345.000000  8345.000000  8345.000000  8345.000000  8345.000000  8345.000000  8345.000000 
 8345.000000  8345.000000  8345.000000  8345.000000  8345.000000  8345.000000  8345.000000  8345.000000 
 8345.000000  8345.000000  8345.000000  8345.000000  8345.000000  8345.000000  8345.000000  8345.000000 
 8345.000000  8345.000000  8345.000000  8345.000000  8345.000000  8345.000000  8345.000000  8345.000000 
 8345.000000  8345.000000  8345.000000  8345.000000  8345.000000  8345.000000  8345.000000  8345.000000 
 8345.000000  8345.000000  8345.000000  8345.000000  8345.000000  8345.000000  8345.000000  8345.000000 
 8345.000000  8345.000000  8345.000000  8345.000000  8345.000000  8345.000000  8345.000000  8345.000000 
 8345.000000  8345.000000  8345.000000  8345.000000  8345.000000  8345.000000  8345.000000  8345.000000 
 8345.000000  8345.000000  8345.000000  8345.000000  8345.000000  8345.000000  8345.000000  8345.000000 
 8345.000000  8345.000000  8345.000000  8345.000000  8345.000000  8345.000000  8345.000000  8345.000000 
 8345.000000  8345.000000  8345.000000  8345.000000  8345.000000  8345.000000  8345.000000  8345.000000 
 8345.000000  8345.000000  8345.000000  8345.000000  8345.000000  8345.000000  8345.000000  8345.000000 
 8345.000000  8345.000000  8345.000000  8345.000000  8345.000000  8345.000000  8345.000000  8345.000000 
 8345.000000  8345.000000  8345.000000  8345.000000  8345.000000  8345.000000  8345.000000  8345.000000 
 8345.000000  8345.000000  8345.000000  8345.000000  8345.000000  8345.000000  8345.000000  8345.000000 
 8345.000000  8345.000000  8345.000000  8345.000000  8345.000000  8345.000000  8345.000000  8345.000000 
 8345.000000  8345.000000  8345.000000  8345.000000  8345.000000  8345.000000  8345.000000  8345.000000 
 8345.000000  8345.000000  8345.000000  8345.000000  8345.000000  8345.000000  8345.000000  8345.000000 
 8345.000000  8345.000000  8345.000000  8345.000000  8345.000000  8345.000000  8345.000000  8345.000000 
 8345.000000  8345.000000  8345.000000  8345.000000  8345.000000  8345.000000  8345.000000  8345.000000 
 8345.000000  8345.000000  8345.000000  8345.000000  8345.000000  8345.000000  8345.000000  8345.000000 
 8345.000000  8345.000000  8345.000000  8345.000000  8345.000000  8345.000000  8345.000000  8345.000000 
 8375.000000  8375.000000  8375.000000  8375.000000  8375.000000  8375.000000  8375.000000  8375.000000 
 8375.000000  8375.000000  8375.000000  8375.000000  8375.000000  8375.000000  8375.000000  8375.000000 
 8375.000000  8375.000000  8375.000000  8375.000000  8375.000000  8375.000000  8375.000000  8375.000000 
 8375.000000  8375.000000  8375.000000  8375.000000  8375.000000  8375.000000  8375.000000  8375.000000 
 8375.000000  8375.000000  8375.000000  8375.000000  8375.000000  8375.000000  8375.000000  8375.000000 
 8375.000000  8375.000000  8375.000000  8375.000000  8375.000000  8375.000000  8375.000000  8375.000000 
 8375.000000  8375.000000  8375.000000  8375.000000  8375.000000  8375.000000  8375.000000  8375.000000 
 8375.000000  8375.000000  8375.000000  8375.000000  8375.000000  8375.000000  8375.000000  8375.000000 
 8375.000000  8375.000000  8375.000000  8375.000000  8375.000000  8375.000000  8375.000000  8375.000000 
 8375.000000  8375.000000  8375.000000  8375.000000  8375.000000  8375.000000  8375.000000  8375.000000 
 8375.000000  8375.000000  8375.000000  8375.000000  8375.000000  8375.000000  8375.000000  8375.000000 
 8375.000000  8375.000000  8375.000000  8375.000000  8375.000000  8375.000000  8375.000000  8375.000000 
 8375.000000  8375.000000  8375.000000  8375.000000  8375.000000  8375.000000  8375.000000  8375.000000 
 8375.000000  8375.000000  8375.000000  8375.000000  8375.000000  8375.000000  8375.000000  8375.000000 
 8375.000000  8375.000000  8375.000000  8375.000000  8375.000000  8375.000000  8375.000000  8375.000000 
 8375.000000  8375.000000  8375.000000  8375.000000  8375.000000  8375.000000  8375.000000  8375.000000 
 8375.000000  8375.000000  8375.000000  8375.000000  8375.000000  8375.000000  8375.000000  8375.000000 
 8375.000000  8375.000000  8375.000000  8375.000000  8375.000000  8375.000000  8375.000000  8375.000000 
 8375.000000  8375.000000  8375.000000  8375.000000  8375.000000  8375.000000  8375.000000  8375.000000 
 8375.000000  8375.000000  8375.000000  8375.000000  8375.000000  8375.000000  8375.000000  8375.000000 
 8375.000000  8375.000000  8375.000000  8375.000000  8375.000000  8375.000000  8375.000000  8375.000000 
 8375.000000  8375.000000  8375.000000  8375.000000  8375.000000  8375.000000  8375.000000  8375.000000 
 8375.000000  8375.000000  8375.000000  8375.000000  8375.000000  8375.000000  8375.000000  8375.000000 
 8375.000000  8375.000000  8375.000000  8375.000000  8375.000000  8375.000000  8375.000000  8375.000000 
 8375.000000  8375.000000  8375.000000  8375.000000  8375.000000  8375.000000  8375.000000  8375.000000 
 8375.000000  8375.000000  8375.000000  8375.000000  8375.000000  8375.000000  8375.000000  8375.000000 
 8375.000000  8375.000000  8375.000000  8375.000000  8375.000000  8375.000000  8375.000000  8375.000000 
 8375.000000  8375.000000  8375.000000  8375.000000  8375.000000  8375.000000  8375.000000  8375.000000 
 8375.000000  8375.000000  8375.000000  8375.000000  8375.000000  8375.000000  8375.000000  8375.000000 
 8375.000000  8375.000000  8375.000000  8375.000000  8375.000000  8375.000000  8375.000000  8375.000000 
 8375.000000  8375.000000  8375.000000  8375.000000  8375.000000  8375.000000  8375.000000  8375.000000 
 8375.000000  8375.000000  8375.000000  8375.000000  8375.000000  8375.000000  8375.000000  8375.000000 
 8375.000000  8375.000000  8375.000000  8375.000000  8375.000000  8375.000000  8375.000000  8375.000000 
 8375.000000  8375.000000  8375.000000  8375.000000  8375.000000  8375.000000  8375.000000  8375.000000 
 8375.000000  8375.000000  8375.000000  8375.000000  8375.000000  8375.000000  8375.000000  8375.000000 
 8375.000000  8375.000000  8375.000000  8375.000000  8375.000000  8375.000000  8375.000000  8375.000000 
 8375.000000  8375.000000  8375.000000  8375.000000  8375.000000  8375.000000  8375.000000  8375.000000 
 8375.000000  8375.000000  8375.000000  8375.000000  8375.000000  8375.000000  8375.000000  8375.000000 
 8375.000000  8375.000000  8375.000000  8375.000000  8375.000000  8375.000000  8375.000000  8375.000000 
 8375.000000  8375.000000  8375.000000  8375.000000  8375.000000  8375.000000  8375.000000  8375.000000 