-- The following file was written from MATLAB using the MRST toolbox.

SPECGRID
24 25 15 1 F
/

COORD
    0.000000     0.000000  8973.550000     0.000000     0.000000  9332.550000 
  300.000000     0.000000  9026.450000   300.000000     0.000000  9385.450000 
  600.000000     0.000000  9079.350000   600.000000     0.000000  9438.350000 
  900.000000     0.000000  9132.245000   900.000000     0.000000  9491.245000 
 1200.000000     0.000000  9185.140000  1200.000000     0.000000  9544.140000 
 1500.000000     0.000000  9238.040000  1500.000000     0.000000  9597.040000 
 1800.000000     0.000000  9290.940000  1800.000000     0.000000  9649.940000 
 2100.000000     0.000000  9343.840000  2100.000000     0.000000  9702.840000 
 2400.000000     0.000000  9396.735000  2400.000000     0.000000  9755.735000 
 2700.000000     0.000000  9449.630000  2700.000000     0.000000  9808.630000 
 3000.000000     0.000000  9502.530000  3000.000000     0.000000  9861.530000 
 3300.000000     0.000000  9555.430000  3300.000000     0.000000  9914.430000 
 3600.000000     0.000000  9608.330000  3600.000000     0.000000  9967.330000 
 3900.000000     0.000000  9661.225000  3900.000000     0.000000 10020.225000 
 4200.000000     0.000000  9714.120000  4200.000000     0.000000 10073.120000 
 4500.000000     0.000000  9767.020000  4500.000000     0.000000 10126.020000 
 4800.000000     0.000000  9819.920000  4800.000000     0.000000 10178.920000 
 5100.000000     0.000000  9872.820000  5100.000000     0.000000 10231.820000 
 5400.000000     0.000000  9925.720000  5400.000000     0.000000 10284.720000 
 5700.000000     0.000000  9978.615000  5700.000000     0.000000 10337.615000 
 6000.000000     0.000000 10031.510000  6000.000000     0.000000 10390.510000 
 6300.000000     0.000000 10084.410000  6300.000000     0.000000 10443.410000 
 6600.000000     0.000000 10137.310000  6600.000000     0.000000 10496.310000 
 6900.000000     0.000000 10190.210000  6900.000000     0.000000 10549.210000 
 7200.000000     0.000000 10243.110000  7200.000000     0.000000 10602.110000 
    0.000000   300.000000  8973.550000     0.000000   300.000000  9332.550000 
  300.000000   300.000000  9026.450000   300.000000   300.000000  9385.450000 
  600.000000   300.000000  9079.350000   600.000000   300.000000  9438.350000 
  900.000000   300.000000  9132.245000   900.000000   300.000000  9491.245000 
 1200.000000   300.000000  9185.140000  1200.000000   300.000000  9544.140000 
 1500.000000   300.000000  9238.040000  1500.000000   300.000000  9597.040000 
 1800.000000   300.000000  9290.940000  1800.000000   300.000000  9649.940000 
 2100.000000   300.000000  9343.840000  2100.000000   300.000000  9702.840000 
 2400.000000   300.000000  9396.735000  2400.000000   300.000000  9755.735000 
 2700.000000   300.000000  9449.630000  2700.000000   300.000000  9808.630000 
 3000.000000   300.000000  9502.530000  3000.000000   300.000000  9861.530000 
 3300.000000   300.000000  9555.430000  3300.000000   300.000000  9914.430000 
 3600.000000   300.000000  9608.330000  3600.000000   300.000000  9967.330000 
 3900.000000   300.000000  9661.225000  3900.000000   300.000000 10020.225000 
 4200.000000   300.000000  9714.120000  4200.000000   300.000000 10073.120000 
 4500.000000   300.000000  9767.020000  4500.000000   300.000000 10126.020000 
 4800.000000   300.000000  9819.920000  4800.000000   300.000000 10178.920000 
 5100.000000   300.000000  9872.820000  5100.000000   300.000000 10231.820000 
 5400.000000   300.000000  9925.720000  5400.000000   300.000000 10284.720000 
 5700.000000   300.000000  9978.615000  5700.000000   300.000000 10337.615000 
 6000.000000   300.000000 10031.510000  6000.000000   300.000000 10390.510000 
 6300.000000   300.000000 10084.410000  6300.000000   300.000000 10443.410000 
 6600.000000   300.000000 10137.310000  6600.000000   300.000000 10496.310000 
 6900.000000   300.000000 10190.210000  6900.000000   300.000000 10549.210000 
 7200.000000   300.000000 10243.110000  7200.000000   300.000000 10602.110000 
    0.000000   600.000000  8973.550000     0.000000   600.000000  9332.550000 
  300.000000   600.000000  9026.450000   300.000000   600.000000  9385.450000 
  600.000000   600.000000  9079.350000   600.000000   600.000000  9438.350000 
  900.000000   600.000000  9132.245000   900.000000   600.000000  9491.245000 
 1200.000000   600.000000  9185.140000  1200.000000   600.000000  9544.140000 
 1500.000000   600.000000  9238.040000  1500.000000   600.000000  9597.040000 
 1800.000000   600.000000  9290.940000  1800.000000   600.000000  9649.940000 
 2100.000000   600.000000  9343.840000  2100.000000   600.000000  9702.840000 
 2400.000000   600.000000  9396.735000  2400.000000   600.000000  9755.735000 
 2700.000000   600.000000  9449.630000  2700.000000   600.000000  9808.630000 
 3000.000000   600.000000  9502.530000  3000.000000   600.000000  9861.530000 
 3300.000000   600.000000  9555.430000  3300.000000   600.000000  9914.430000 
 3600.000000   600.000000  9608.330000  3600.000000   600.000000  9967.330000 
 3900.000000   600.000000  9661.225000  3900.000000   600.000000 10020.225000 
 4200.000000   600.000000  9714.120000  4200.000000   600.000000 10073.120000 
 4500.000000   600.000000  9767.020000  4500.000000   600.000000 10126.020000 
 4800.000000   600.000000  9819.920000  4800.000000   600.000000 10178.920000 
 5100.000000   600.000000  9872.820000  5100.000000   600.000000 10231.820000 
 5400.000000   600.000000  9925.720000  5400.000000   600.000000 10284.720000 
 5700.000000   600.000000  9978.615000  5700.000000   600.000000 10337.615000 
 6000.000000   600.000000 10031.510000  6000.000000   600.000000 10390.510000 
 6300.000000   600.000000 10084.410000  6300.000000   600.000000 10443.410000 
 6600.000000   600.000000 10137.310000  6600.000000   600.000000 10496.310000 
 6900.000000   600.000000 10190.210000  6900.000000   600.000000 10549.210000 
 7200.000000   600.000000 10243.110000  7200.000000   600.000000 10602.110000 
    0.000000   900.000000  8973.550000     0.000000   900.000000  9332.550000 
  300.000000   900.000000  9026.450000   300.000000   900.000000  9385.450000 
  600.000000   900.000000  9079.350000   600.000000   900.000000  9438.350000 
  900.000000   900.000000  9132.245000   900.000000   900.000000  9491.245000 
 1200.000000   900.000000  9185.140000  1200.000000   900.000000  9544.140000 
 1500.000000   900.000000  9238.040000  1500.000000   900.000000  9597.040000 
 1800.000000   900.000000  9290.940000  1800.000000   900.000000  9649.940000 
 2100.000000   900.000000  9343.840000  2100.000000   900.000000  9702.840000 
 2400.000000   900.000000  9396.735000  2400.000000   900.000000  9755.735000 
 2700.000000   900.000000  9449.630000  2700.000000   900.000000  9808.630000 
 3000.000000   900.000000  9502.530000  3000.000000   900.000000  9861.530000 
 3300.000000   900.000000  9555.430000  3300.000000   900.000000  9914.430000 
 3600.000000   900.000000  9608.330000  3600.000000   900.000000  9967.330000 
 3900.000000   900.000000  9661.225000  3900.000000   900.000000 10020.225000 
 4200.000000   900.000000  9714.120000  4200.000000   900.000000 10073.120000 
 4500.000000   900.000000  9767.020000  4500.000000   900.000000 10126.020000 
 4800.000000   900.000000  9819.920000  4800.000000   900.000000 10178.920000 
 5100.000000   900.000000  9872.820000  5100.000000   900.000000 10231.820000 
 5400.000000   900.000000  9925.720000  5400.000000   900.000000 10284.720000 
 5700.000000   900.000000  9978.615000  5700.000000   900.000000 10337.615000 
 6000.000000   900.000000 10031.510000  6000.000000   900.000000 10390.510000 
 6300.000000   900.000000 10084.410000  6300.000000   900.000000 10443.410000 
 6600.000000   900.000000 10137.310000  6600.000000   900.000000 10496.310000 
 6900.000000   900.000000 10190.210000  6900.000000   900.000000 10549.210000 
 7200.000000   900.000000 10243.110000  7200.000000   900.000000 10602.110000 
    0.000000  1200.000000  8973.550000     0.000000  1200.000000  9332.550000 
  300.000000  1200.000000  9026.450000   300.000000  1200.000000  9385.450000 
  600.000000  1200.000000  9079.350000   600.000000  1200.000000  9438.350000 
  900.000000  1200.000000  9132.245000   900.000000  1200.000000  9491.245000 
 1200.000000  1200.000000  9185.140000  1200.000000  1200.000000  9544.140000 
 1500.000000  1200.000000  9238.040000  1500.000000  1200.000000  9597.040000 
 1800.000000  1200.000000  9290.940000  1800.000000  1200.000000  9649.940000 
 2100.000000  1200.000000  9343.840000  2100.000000  1200.000000  9702.840000 
 2400.000000  1200.000000  9396.735000  2400.000000  1200.000000  9755.735000 
 2700.000000  1200.000000  9449.630000  2700.000000  1200.000000  9808.630000 
 3000.000000  1200.000000  9502.530000  3000.000000  1200.000000  9861.530000 
 3300.000000  1200.000000  9555.430000  3300.000000  1200.000000  9914.430000 
 3600.000000  1200.000000  9608.330000  3600.000000  1200.000000  9967.330000 
 3900.000000  1200.000000  9661.225000  3900.000000  1200.000000 10020.225000 
 4200.000000  1200.000000  9714.120000  4200.000000  1200.000000 10073.120000 
 4500.000000  1200.000000  9767.020000  4500.000000  1200.000000 10126.020000 
 4800.000000  1200.000000  9819.920000  4800.000000  1200.000000 10178.920000 
 5100.000000  1200.000000  9872.820000  5100.000000  1200.000000 10231.820000 
 5400.000000  1200.000000  9925.720000  5400.000000  1200.000000 10284.720000 
 5700.000000  1200.000000  9978.615000  5700.000000  1200.000000 10337.615000 
 6000.000000  1200.000000 10031.510000  6000.000000  1200.000000 10390.510000 
 6300.000000  1200.000000 10084.410000  6300.000000  1200.000000 10443.410000 
 6600.000000  1200.000000 10137.310000  6600.000000  1200.000000 10496.310000 
 6900.000000  1200.000000 10190.210000  6900.000000  1200.000000 10549.210000 
 7200.000000  1200.000000 10243.110000  7200.000000  1200.000000 10602.110000 
    0.000000  1500.000000  8973.550000     0.000000  1500.000000  9332.550000 
  300.000000  1500.000000  9026.450000   300.000000  1500.000000  9385.450000 
  600.000000  1500.000000  9079.350000   600.000000  1500.000000  9438.350000 
  900.000000  1500.000000  9132.245000   900.000000  1500.000000  9491.245000 
 1200.000000  1500.000000  9185.140000  1200.000000  1500.000000  9544.140000 
 1500.000000  1500.000000  9238.040000  1500.000000  1500.000000  9597.040000 
 1800.000000  1500.000000  9290.940000  1800.000000  1500.000000  9649.940000 
 2100.000000  1500.000000  9343.840000  2100.000000  1500.000000  9702.840000 
 2400.000000  1500.000000  9396.735000  2400.000000  1500.000000  9755.735000 
 2700.000000  1500.000000  9449.630000  2700.000000  1500.000000  9808.630000 
 3000.000000  1500.000000  9502.530000  3000.000000  1500.000000  9861.530000 
 3300.000000  1500.000000  9555.430000  3300.000000  1500.000000  9914.430000 
 3600.000000  1500.000000  9608.330000  3600.000000  1500.000000  9967.330000 
 3900.000000  1500.000000  9661.225000  3900.000000  1500.000000 10020.225000 
 4200.000000  1500.000000  9714.120000  4200.000000  1500.000000 10073.120000 
 4500.000000  1500.000000  9767.020000  4500.000000  1500.000000 10126.020000 
 4800.000000  1500.000000  9819.920000  4800.000000  1500.000000 10178.920000 
 5100.000000  1500.000000  9872.820000  5100.000000  1500.000000 10231.820000 
 5400.000000  1500.000000  9925.720000  5400.000000  1500.000000 10284.720000 
 5700.000000  1500.000000  9978.615000  5700.000000  1500.000000 10337.615000 
 6000.000000  1500.000000 10031.510000  6000.000000  1500.000000 10390.510000 
 6300.000000  1500.000000 10084.410000  6300.000000  1500.000000 10443.410000 
 6600.000000  1500.000000 10137.310000  6600.000000  1500.000000 10496.310000 
 6900.000000  1500.000000 10190.210000  6900.000000  1500.000000 10549.210000 
 7200.000000  1500.000000 10243.110000  7200.000000  1500.000000 10602.110000 
    0.000000  1800.000000  8973.550000     0.000000  1800.000000  9332.550000 
  300.000000  1800.000000  9026.450000   300.000000  1800.000000  9385.450000 
  600.000000  1800.000000  9079.350000   600.000000  1800.000000  9438.350000 
  900.000000  1800.000000  9132.245000   900.000000  1800.000000  9491.245000 
 1200.000000  1800.000000  9185.140000  1200.000000  1800.000000  9544.140000 
 1500.000000  1800.000000  9238.040000  1500.000000  1800.000000  9597.040000 
 1800.000000  1800.000000  9290.940000  1800.000000  1800.000000  9649.940000 
 2100.000000  1800.000000  9343.840000  2100.000000  1800.000000  9702.840000 
 2400.000000  1800.000000  9396.735000  2400.000000  1800.000000  9755.735000 
 2700.000000  1800.000000  9449.630000  2700.000000  1800.000000  9808.630000 
 3000.000000  1800.000000  9502.530000  3000.000000  1800.000000  9861.530000 
 3300.000000  1800.000000  9555.430000  3300.000000  1800.000000  9914.430000 
 3600.000000  1800.000000  9608.330000  3600.000000  1800.000000  9967.330000 
 3900.000000  1800.000000  9661.225000  3900.000000  1800.000000 10020.225000 
 4200.000000  1800.000000  9714.120000  4200.000000  1800.000000 10073.120000 
 4500.000000  1800.000000  9767.020000  4500.000000  1800.000000 10126.020000 
 4800.000000  1800.000000  9819.920000  4800.000000  1800.000000 10178.920000 
 5100.000000  1800.000000  9872.820000  5100.000000  1800.000000 10231.820000 
 5400.000000  1800.000000  9925.720000  5400.000000  1800.000000 10284.720000 
 5700.000000  1800.000000  9978.615000  5700.000000  1800.000000 10337.615000 
 6000.000000  1800.000000 10031.510000  6000.000000  1800.000000 10390.510000 
 6300.000000  1800.000000 10084.410000  6300.000000  1800.000000 10443.410000 
 6600.000000  1800.000000 10137.310000  6600.000000  1800.000000 10496.310000 
 6900.000000  1800.000000 10190.210000  6900.000000  1800.000000 10549.210000 
 7200.000000  1800.000000 10243.110000  7200.000000  1800.000000 10602.110000 
    0.000000  2100.000000  8973.550000     0.000000  2100.000000  9332.550000 
  300.000000  2100.000000  9026.450000   300.000000  2100.000000  9385.450000 
  600.000000  2100.000000  9079.350000   600.000000  2100.000000  9438.350000 
  900.000000  2100.000000  9132.245000   900.000000  2100.000000  9491.245000 
 1200.000000  2100.000000  9185.140000  1200.000000  2100.000000  9544.140000 
 1500.000000  2100.000000  9238.040000  1500.000000  2100.000000  9597.040000 
 1800.000000  2100.000000  9290.940000  1800.000000  2100.000000  9649.940000 
 2100.000000  2100.000000  9343.840000  2100.000000  2100.000000  9702.840000 
 2400.000000  2100.000000  9396.735000  2400.000000  2100.000000  9755.735000 
 2700.000000  2100.000000  9449.630000  2700.000000  2100.000000  9808.630000 
 3000.000000  2100.000000  9502.530000  3000.000000  2100.000000  9861.530000 
 3300.000000  2100.000000  9555.430000  3300.000000  2100.000000  9914.430000 
 3600.000000  2100.000000  9608.330000  3600.000000  2100.000000  9967.330000 
 3900.000000  2100.000000  9661.225000  3900.000000  2100.000000 10020.225000 
 4200.000000  2100.000000  9714.120000  4200.000000  2100.000000 10073.120000 
 4500.000000  2100.000000  9767.020000  4500.000000  2100.000000 10126.020000 
 4800.000000  2100.000000  9819.920000  4800.000000  2100.000000 10178.920000 
 5100.000000  2100.000000  9872.820000  5100.000000  2100.000000 10231.820000 
 5400.000000  2100.000000  9925.720000  5400.000000  2100.000000 10284.720000 
 5700.000000  2100.000000  9978.615000  5700.000000  2100.000000 10337.615000 
 6000.000000  2100.000000 10031.510000  6000.000000  2100.000000 10390.510000 
 6300.000000  2100.000000 10084.410000  6300.000000  2100.000000 10443.410000 
 6600.000000  2100.000000 10137.310000  6600.000000  2100.000000 10496.310000 
 6900.000000  2100.000000 10190.210000  6900.000000  2100.000000 10549.210000 
 7200.000000  2100.000000 10243.110000  7200.000000  2100.000000 10602.110000 
    0.000000  2400.000000  8973.550000     0.000000  2400.000000  9332.550000 
  300.000000  2400.000000  9026.450000   300.000000  2400.000000  9385.450000 
  600.000000  2400.000000  9079.350000   600.000000  2400.000000  9438.350000 
  900.000000  2400.000000  9132.245000   900.000000  2400.000000  9491.245000 
 1200.000000  2400.000000  9185.140000  1200.000000  2400.000000  9544.140000 
 1500.000000  2400.000000  9238.040000  1500.000000  2400.000000  9597.040000 
 1800.000000  2400.000000  9290.940000  1800.000000  2400.000000  9649.940000 
 2100.000000  2400.000000  9343.840000  2100.000000  2400.000000  9702.840000 
 2400.000000  2400.000000  9396.735000  2400.000000  2400.000000  9755.735000 
 2700.000000  2400.000000  9449.630000  2700.000000  2400.000000  9808.630000 
 3000.000000  2400.000000  9502.530000  3000.000000  2400.000000  9861.530000 
 3300.000000  2400.000000  9555.430000  3300.000000  2400.000000  9914.430000 
 3600.000000  2400.000000  9608.330000  3600.000000  2400.000000  9967.330000 
 3900.000000  2400.000000  9661.225000  3900.000000  2400.000000 10020.225000 
 4200.000000  2400.000000  9714.120000  4200.000000  2400.000000 10073.120000 
 4500.000000  2400.000000  9767.020000  4500.000000  2400.000000 10126.020000 
 4800.000000  2400.000000  9819.920000  4800.000000  2400.000000 10178.920000 
 5100.000000  2400.000000  9872.820000  5100.000000  2400.000000 10231.820000 
 5400.000000  2400.000000  9925.720000  5400.000000  2400.000000 10284.720000 
 5700.000000  2400.000000  9978.615000  5700.000000  2400.000000 10337.615000 
 6000.000000  2400.000000 10031.510000  6000.000000  2400.000000 10390.510000 
 6300.000000  2400.000000 10084.410000  6300.000000  2400.000000 10443.410000 
 6600.000000  2400.000000 10137.310000  6600.000000  2400.000000 10496.310000 
 6900.000000  2400.000000 10190.210000  6900.000000  2400.000000 10549.210000 
 7200.000000  2400.000000 10243.110000  7200.000000  2400.000000 10602.110000 
    0.000000  2700.000000  8973.550000     0.000000  2700.000000  9332.550000 
  300.000000  2700.000000  9026.450000   300.000000  2700.000000  9385.450000 
  600.000000  2700.000000  9079.350000   600.000000  2700.000000  9438.350000 
  900.000000  2700.000000  9132.245000   900.000000  2700.000000  9491.245000 
 1200.000000  2700.000000  9185.140000  1200.000000  2700.000000  9544.140000 
 1500.000000  2700.000000  9238.040000  1500.000000  2700.000000  9597.040000 
 1800.000000  2700.000000  9290.940000  1800.000000  2700.000000  9649.940000 
 2100.000000  2700.000000  9343.840000  2100.000000  2700.000000  9702.840000 
 2400.000000  2700.000000  9396.735000  2400.000000  2700.000000  9755.735000 
 2700.000000  2700.000000  9449.630000  2700.000000  2700.000000  9808.630000 
 3000.000000  2700.000000  9502.530000  3000.000000  2700.000000  9861.530000 
 3300.000000  2700.000000  9555.430000  3300.000000  2700.000000  9914.430000 
 3600.000000  2700.000000  9608.330000  3600.000000  2700.000000  9967.330000 
 3900.000000  2700.000000  9661.225000  3900.000000  2700.000000 10020.225000 
 4200.000000  2700.000000  9714.120000  4200.000000  2700.000000 10073.120000 
 4500.000000  2700.000000  9767.020000  4500.000000  2700.000000 10126.020000 
 4800.000000  2700.000000  9819.920000  4800.000000  2700.000000 10178.920000 
 5100.000000  2700.000000  9872.820000  5100.000000  2700.000000 10231.820000 
 5400.000000  2700.000000  9925.720000  5400.000000  2700.000000 10284.720000 
 5700.000000  2700.000000  9978.615000  5700.000000  2700.000000 10337.615000 
 6000.000000  2700.000000 10031.510000  6000.000000  2700.000000 10390.510000 
 6300.000000  2700.000000 10084.410000  6300.000000  2700.000000 10443.410000 
 6600.000000  2700.000000 10137.310000  6600.000000  2700.000000 10496.310000 
 6900.000000  2700.000000 10190.210000  6900.000000  2700.000000 10549.210000 
 7200.000000  2700.000000 10243.110000  7200.000000  2700.000000 10602.110000 
    0.000000  3000.000000  8973.550000     0.000000  3000.000000  9332.550000 
  300.000000  3000.000000  9026.450000   300.000000  3000.000000  9385.450000 
  600.000000  3000.000000  9079.350000   600.000000  3000.000000  9438.350000 
  900.000000  3000.000000  9132.245000   900.000000  3000.000000  9491.245000 
 1200.000000  3000.000000  9185.140000  1200.000000  3000.000000  9544.140000 
 1500.000000  3000.000000  9238.040000  1500.000000  3000.000000  9597.040000 
 1800.000000  3000.000000  9290.940000  1800.000000  3000.000000  9649.940000 
 2100.000000  3000.000000  9343.840000  2100.000000  3000.000000  9702.840000 
 2400.000000  3000.000000  9396.735000  2400.000000  3000.000000  9755.735000 
 2700.000000  3000.000000  9449.630000  2700.000000  3000.000000  9808.630000 
 3000.000000  3000.000000  9502.530000  3000.000000  3000.000000  9861.530000 
 3300.000000  3000.000000  9555.430000  3300.000000  3000.000000  9914.430000 
 3600.000000  3000.000000  9608.330000  3600.000000  3000.000000  9967.330000 
 3900.000000  3000.000000  9661.225000  3900.000000  3000.000000 10020.225000 
 4200.000000  3000.000000  9714.120000  4200.000000  3000.000000 10073.120000 
 4500.000000  3000.000000  9767.020000  4500.000000  3000.000000 10126.020000 
 4800.000000  3000.000000  9819.920000  4800.000000  3000.000000 10178.920000 
 5100.000000  3000.000000  9872.820000  5100.000000  3000.000000 10231.820000 
 5400.000000  3000.000000  9925.720000  5400.000000  3000.000000 10284.720000 
 5700.000000  3000.000000  9978.615000  5700.000000  3000.000000 10337.615000 
 6000.000000  3000.000000 10031.510000  6000.000000  3000.000000 10390.510000 
 6300.000000  3000.000000 10084.410000  6300.000000  3000.000000 10443.410000 
 6600.000000  3000.000000 10137.310000  6600.000000  3000.000000 10496.310000 
 6900.000000  3000.000000 10190.210000  6900.000000  3000.000000 10549.210000 
 7200.000000  3000.000000 10243.110000  7200.000000  3000.000000 10602.110000 
    0.000000  3300.000000  8973.550000     0.000000  3300.000000  9332.550000 
  300.000000  3300.000000  9026.450000   300.000000  3300.000000  9385.450000 
  600.000000  3300.000000  9079.350000   600.000000  3300.000000  9438.350000 
  900.000000  3300.000000  9132.245000   900.000000  3300.000000  9491.245000 
 1200.000000  3300.000000  9185.140000  1200.000000  3300.000000  9544.140000 
 1500.000000  3300.000000  9238.040000  1500.000000  3300.000000  9597.040000 
 1800.000000  3300.000000  9290.940000  1800.000000  3300.000000  9649.940000 
 2100.000000  3300.000000  9343.840000  2100.000000  3300.000000  9702.840000 
 2400.000000  3300.000000  9396.735000  2400.000000  3300.000000  9755.735000 
 2700.000000  3300.000000  9449.630000  2700.000000  3300.000000  9808.630000 
 3000.000000  3300.000000  9502.530000  3000.000000  3300.000000  9861.530000 
 3300.000000  3300.000000  9555.430000  3300.000000  3300.000000  9914.430000 
 3600.000000  3300.000000  9608.330000  3600.000000  3300.000000  9967.330000 
 3900.000000  3300.000000  9661.225000  3900.000000  3300.000000 10020.225000 
 4200.000000  3300.000000  9714.120000  4200.000000  3300.000000 10073.120000 
 4500.000000  3300.000000  9767.020000  4500.000000  3300.000000 10126.020000 
 4800.000000  3300.000000  9819.920000  4800.000000  3300.000000 10178.920000 
 5100.000000  3300.000000  9872.820000  5100.000000  3300.000000 10231.820000 
 5400.000000  3300.000000  9925.720000  5400.000000  3300.000000 10284.720000 
 5700.000000  3300.000000  9978.615000  5700.000000  3300.000000 10337.615000 
 6000.000000  3300.000000 10031.510000  6000.000000  3300.000000 10390.510000 
 6300.000000  3300.000000 10084.410000  6300.000000  3300.000000 10443.410000 
 6600.000000  3300.000000 10137.310000  6600.000000  3300.000000 10496.310000 
 6900.000000  3300.000000 10190.210000  6900.000000  3300.000000 10549.210000 
 7200.000000  3300.000000 10243.110000  7200.000000  3300.000000 10602.110000 
    0.000000  3600.000000  8973.550000     0.000000  3600.000000  9332.550000 
  300.000000  3600.000000  9026.450000   300.000000  3600.000000  9385.450000 
  600.000000  3600.000000  9079.350000   600.000000  3600.000000  9438.350000 
  900.000000  3600.000000  9132.245000   900.000000  3600.000000  9491.245000 
 1200.000000  3600.000000  9185.140000  1200.000000  3600.000000  9544.140000 
 1500.000000  3600.000000  9238.040000  1500.000000  3600.000000  9597.040000 
 1800.000000  3600.000000  9290.940000  1800.000000  3600.000000  9649.940000 
 2100.000000  3600.000000  9343.840000  2100.000000  3600.000000  9702.840000 
 2400.000000  3600.000000  9396.735000  2400.000000  3600.000000  9755.735000 
 2700.000000  3600.000000  9449.630000  2700.000000  3600.000000  9808.630000 
 3000.000000  3600.000000  9502.530000  3000.000000  3600.000000  9861.530000 
 3300.000000  3600.000000  9555.430000  3300.000000  3600.000000  9914.430000 
 3600.000000  3600.000000  9608.330000  3600.000000  3600.000000  9967.330000 
 3900.000000  3600.000000  9661.225000  3900.000000  3600.000000 10020.225000 
 4200.000000  3600.000000  9714.120000  4200.000000  3600.000000 10073.120000 
 4500.000000  3600.000000  9767.020000  4500.000000  3600.000000 10126.020000 
 4800.000000  3600.000000  9819.920000  4800.000000  3600.000000 10178.920000 
 5100.000000  3600.000000  9872.820000  5100.000000  3600.000000 10231.820000 
 5400.000000  3600.000000  9925.720000  5400.000000  3600.000000 10284.720000 
 5700.000000  3600.000000  9978.615000  5700.000000  3600.000000 10337.615000 
 6000.000000  3600.000000 10031.510000  6000.000000  3600.000000 10390.510000 
 6300.000000  3600.000000 10084.410000  6300.000000  3600.000000 10443.410000 
 6600.000000  3600.000000 10137.310000  6600.000000  3600.000000 10496.310000 
 6900.000000  3600.000000 10190.210000  6900.000000  3600.000000 10549.210000 
 7200.000000  3600.000000 10243.110000  7200.000000  3600.000000 10602.110000 
    0.000000  3900.000000  8973.550000     0.000000  3900.000000  9332.550000 
  300.000000  3900.000000  9026.450000   300.000000  3900.000000  9385.450000 
  600.000000  3900.000000  9079.350000   600.000000  3900.000000  9438.350000 
  900.000000  3900.000000  9132.245000   900.000000  3900.000000  9491.245000 
 1200.000000  3900.000000  9185.140000  1200.000000  3900.000000  9544.140000 
 1500.000000  3900.000000  9238.040000  1500.000000  3900.000000  9597.040000 
 1800.000000  3900.000000  9290.940000  1800.000000  3900.000000  9649.940000 
 2100.000000  3900.000000  9343.840000  2100.000000  3900.000000  9702.840000 
 2400.000000  3900.000000  9396.735000  2400.000000  3900.000000  9755.735000 
 2700.000000  3900.000000  9449.630000  2700.000000  3900.000000  9808.630000 
 3000.000000  3900.000000  9502.530000  3000.000000  3900.000000  9861.530000 
 3300.000000  3900.000000  9555.430000  3300.000000  3900.000000  9914.430000 
 3600.000000  3900.000000  9608.330000  3600.000000  3900.000000  9967.330000 
 3900.000000  3900.000000  9661.225000  3900.000000  3900.000000 10020.225000 
 4200.000000  3900.000000  9714.120000  4200.000000  3900.000000 10073.120000 
 4500.000000  3900.000000  9767.020000  4500.000000  3900.000000 10126.020000 
 4800.000000  3900.000000  9819.920000  4800.000000  3900.000000 10178.920000 
 5100.000000  3900.000000  9872.820000  5100.000000  3900.000000 10231.820000 
 5400.000000  3900.000000  9925.720000  5400.000000  3900.000000 10284.720000 
 5700.000000  3900.000000  9978.615000  5700.000000  3900.000000 10337.615000 
 6000.000000  3900.000000 10031.510000  6000.000000  3900.000000 10390.510000 
 6300.000000  3900.000000 10084.410000  6300.000000  3900.000000 10443.410000 
 6600.000000  3900.000000 10137.310000  6600.000000  3900.000000 10496.310000 
 6900.000000  3900.000000 10190.210000  6900.000000  3900.000000 10549.210000 
 7200.000000  3900.000000 10243.110000  7200.000000  3900.000000 10602.110000 
    0.000000  4200.000000  8973.550000     0.000000  4200.000000  9332.550000 
  300.000000  4200.000000  9026.450000   300.000000  4200.000000  9385.450000 
  600.000000  4200.000000  9079.350000   600.000000  4200.000000  9438.350000 
  900.000000  4200.000000  9132.245000   900.000000  4200.000000  9491.245000 
 1200.000000  4200.000000  9185.140000  1200.000000  4200.000000  9544.140000 
 1500.000000  4200.000000  9238.040000  1500.000000  4200.000000  9597.040000 
 1800.000000  4200.000000  9290.940000  1800.000000  4200.000000  9649.940000 
 2100.000000  4200.000000  9343.840000  2100.000000  4200.000000  9702.840000 
 2400.000000  4200.000000  9396.735000  2400.000000  4200.000000  9755.735000 
 2700.000000  4200.000000  9449.630000  2700.000000  4200.000000  9808.630000 
 3000.000000  4200.000000  9502.530000  3000.000000  4200.000000  9861.530000 
 3300.000000  4200.000000  9555.430000  3300.000000  4200.000000  9914.430000 
 3600.000000  4200.000000  9608.330000  3600.000000  4200.000000  9967.330000 
 3900.000000  4200.000000  9661.225000  3900.000000  4200.000000 10020.225000 
 4200.000000  4200.000000  9714.120000  4200.000000  4200.000000 10073.120000 
 4500.000000  4200.000000  9767.020000  4500.000000  4200.000000 10126.020000 
 4800.000000  4200.000000  9819.920000  4800.000000  4200.000000 10178.920000 
 5100.000000  4200.000000  9872.820000  5100.000000  4200.000000 10231.820000 
 5400.000000  4200.000000  9925.720000  5400.000000  4200.000000 10284.720000 
 5700.000000  4200.000000  9978.615000  5700.000000  4200.000000 10337.615000 
 6000.000000  4200.000000 10031.510000  6000.000000  4200.000000 10390.510000 
 6300.000000  4200.000000 10084.410000  6300.000000  4200.000000 10443.410000 
 6600.000000  4200.000000 10137.310000  6600.000000  4200.000000 10496.310000 