<VTKFile type="UnstructuredGrid" version="1.0" byte_order="LittleEndian" header_type="UInt64">
  <UnstructuredGrid>
    <Piece NumberOfPoints="2788" NumberOfCells="2046">
      <PointData>
      </PointData>
      <CellData Scalars="attribute">
        <DataArray type="Int32" Name="attribute" format="ascii" RangeMin="0" RangeMax="1">
          1 1 1 1 1 1
          1 1 1 1 1 1
          1 1 1 1 1 1
          1 1 1 1 1 1
          1 1 1 1 1 1
          1 1 1 1 1 1
          1 1 1 1 1 1
          1 1 1 1 1 1
          1 1 1 1 1 1
          1 1 1 1 1 1
          1 1 1 1 1 1
          1 1 1 1 1 1
          1 1 1 1 1 1
          1 1 1 1 1 1
          1 1 1 1 1 1
          1 1 1 1 1 1
          1 1 1 1 1 1
          1 1 1 1 1 1
          1 1 1 1 1 1
          1 1 1 1 1 1
          1 1 1 1 1 1
          1 1 1 1 1 1
          1 1 1 1 1 1
          1 1 1 1 1 1
          1 1 1 1 1 1
          1 1 1 1 1 1
          1 1 1 1 1 1
          1 1 1 1 1 1
          1 1 1 1 1 1
          1 1 1 1 1 1
          1 1 1 1 1 1
          1 1 1 1 1 1
          1 1 1 1 1 1
          1 1 1 1 1 1
          1 1 1 1 1 1
          1 1 1 1 1 1
          1 1 1 1 1 1
          1 1 1 1 1 1
          1 1 1 1 1 1
          1 1 1 1 1 1
          1 1 1 1 1 1
          1 1 1 1 1 1
          1 1 1 1 1 1
          1 1 1 1 1 1
          1 1 1 1 1 1
          1 1 1 1 1 1
          1 1 1 1 1 1
          1 1 1 1 1 1
          1 1 1 1 1 1
          1 1 1 1 1 1
          1 1 1 1 1 1
          1 1 1 1 1 1
          1 1 1 1 1 1
          1 1 1 1 1 1
          1 1 1 1 1 1
          1 1 1 1 1 1
          1 1 1 1 1 1
          1 1 1 1 1 1
          1 1 1 1 1 1
          1 1 1 1 1 1
          1 1 1 1 1 1
          1 1 1 1 1 1
          1 1 1 1 1 1
          1 1 1 1 1 1
          1 1 1 1 1 1
          1 1 1 1 1 1
          1 1 1 1 1 1
          1 1 1 1 1 1
          1 1 1 1 1 1
          1 1 1 1 1 1
          1 1 1 1 1 1
          1 1 1 1 1 1
          1 1 1 1 1 1
          1 1 1 1 1 1
          1 1 1 1 1 1
          1 1 1 1 1 1
          1 1 1 1 1 1
          1 1 1 1 1 1
          1 1 1 1 1 1
          1 1 1 1 1 1
          1 1 1 1 1 1
          1 1 1 1 1 1
          1 1 1 1 1 1
          1 1 1 1 1 1
          1 1 1 1 1 1
          1 1 1 1 1 1
          1 1 1 1 1 1
          1 1 1 1 1 1
          1 1 1 1 1 1
          1 1 1 1 1 1
          1 1 1 1 1 1
          1 1 1 1 1 1
          1 1 1 1 1 1
          1 1 1 1 1 1
          1 1 1 1 1 1
          1 1 1 1 1 1
          1 1 1 1 1 1
          1 1 1 1 1 1
          1 1 1 1 1 1
          1 1 1 1 1 1
          1 1 1 1 1 1
          1 1 1 1 1 1
          1 1 1 1 1 1
          1 1 1 1 1 1
          1 1 1 1 1 1
          1 1 1 1 1 1
          1 1 1 1 1 1
          1 1 1 1 1 1
          1 1 1 1 1 1
          1 1 1 1 1 1
          1 1 1 1 1 1
          1 1 1 1 1 1
          1 1 1 1 1 1
          1 1 1 1 1 1
          1 1 1 1 1 1
          1 1 1 1 1 1
          1 1 1 1 1 1
          1 1 1 1 1 1
          1 1 1 1 1 1
          1 1 1 1 1 1
          1 1 1 1 1 1
          1 1 1 1 1 1
          1 1 1 1 1 1
          1 1 1 1 1 1
          1 1 1 1 1 1
          1 1 1 1 1 1
          1 1 1 1 1 1
          1 1 1 1 1 1
          1 1 1 1 1 1
          1 1 1 1 1 1
          1 1 1 1 1 1
          1 1 1 1 1 1
          1 1 1 1 1 1
          1 1 1 1 1 1
          1 1 1 1 1 1
          1 1 1 1 1 1
          1 1 1 1 1 1
          1 1 1 1 1 1
          1 1 1 1 1 1
          1 1 1 1 1 1
          1 1 1 1 1 1
          1 1 1 1 1 1
          1 1 1 1 1 1
          1 1 1 1 1 1
          1 1 1 1 1 1
          1 1 1 1 1 1
          1 1 1 1 1 1
          1 1 1 1 1 1
          1 1 1 1 1 1
          1 1 1 1 1 1
          1 1 1 1 1 1
          1 1 1 1 1 1
          1 1 1 1 1 1
          1 1 1 1 1 1
          1 1 1 1 1 1
          1 1 1 1 1 1
          1 1 1 1 1 1
          1 1 1 1 1 1
          1 1 1 1 1 1
          1 1 1 1 1 1
          1 1 1 1 1 1
          1 1 1 1 1 1
          1 1 1 1 1 1
          1 1 1 1 1 1
          1 1 1 1 1 1
          1 1 1 1 1 1
          1 1 1 1 1 1
          1 1 1 1 1 1
          1 1 1 1 1 1
          1 1 1 1 1 1
          1 1 1 0 0 0
          0 0 0 0 0 0
          0 0 0 0 0 0
          0 0 0 0 0 0
          0 0 0 0 0 0
          0 0 0 0 0 0
          0 0 0 0 0 0
          0 0 0 0 0 0
          0 0 0 0 0 0
          0 0 0 0 0 0
          0 0 0 0 0 0
          0 0 0 0 0 0
          0 0 0 0 0 0
          0 0 0 0 0 0
          0 0 0 0 0 0
          0 0 0 0 0 0
          0 0 0 0 0 0
          0 0 0 0 0 0
          0 0 0 0 0 0
          0 0 0 0 0 0
          0 0 0 0 0 0
          0 0 0 0 0 0
          0 0 0 0 0 0
          0 0 0 0 0 0
          0 0 0 0 0 0
          0 0 0 0 0 0
          0 0 0 0 0 0
          0 0 0 0 0 0
          0 0 0 0 0 0
          0 0 0 0 0 0
          0 0 0 0 0 0
          0 0 0 0 0 0
          0 0 0 0 0 0
          0 0 0 0 0 0
          0 0 0 0 0 0
          0 0 0 0 0 0
          0 0 0 0 0 0
          0 0 0 0 0 0
          0 0 0 0 0 0
          0 0 0 0 0 0
          0 0 0 0 0 0
          0 0 0 0 0 0
          0 0 0 0 0 0
          0 0 0 0 0 0
          0 0 0 0 0 0
          0 0 0 0 0 0
          0 0 0 0 0 0
          0 0 0 0 0 0
          0 0 0 0 0 0
          0 0 0 0 0 0
          0 0 0 0 0 0
          0 0 0 0 0 0
          0 0 0 0 0 0
          0 0 0 0 0 0
          0 0 0 0 0 0
          0 0 0 0 0 0
          0 0 0 0 0 0
          0 0 0 0 0 0
          0 0 0 0 0 0
          0 0 0 0 0 0
          0 0 0 0 0 0
          0 0 0 0 0 0
          0 0 0 0 0 0
          0 0 0 0 0 0
          0 0 0 0 0 0
          0 0 0 0 0 0
          0 0 0 0 0 0
          0 0 0 0 0 0
          0 0 0 0 0 0
          0 0 0 0 0 0
          0 0 0 0 0 0
          0 0 0 0 0 0
          0 0 0 0 0 0
          0 0 0 0 0 0
          0 0 0 0 0 0
          0 0 0 0 0 0
          0 0 0 0 0 0
          0 0 0 0 0 0
          0 0 0 0 0 0
          0 0 0 0 0 0
          0 0 0 0 0 0
          0 0 0 0 0 0
          0 0 0 0 0 0
          0 0 0 0 0 0
          0 0 0 0 0 0
          0 0 0 0 0 0
          0 0 0 0 0 0
          0 0 0 0 0 0
          0 0 0 0 0 0
          0 0 0 0 0 0
          0 0 0 0 0 0
          0 0 0 0 0 0
          0 0 0 0 0 0
          0 0 0 0 0 0
          0 0 0 0 0 0
          0 0 0 0 0 0
          0 0 0 0 0 0
          0 0 0 0 0 0
          0 0 0 0 0 0
          0 0 0 0 0 0
          0 0 0 0 0 0
          0 0 0 0 0 0
          0 0 0 0 0 0
          0 0 0 0 0 0
          0 0 0 0 0 0
          0 0 0 0 0 0
          0 0 0 0 0 0
          0 0 0 0 0 0
          0 0 0 0 0 0
          0 0 0 0 0 0
          0 0 0 0 0 0
          0 0 0 0 0 0
          0 0 0 0 0 0
          0 0 0 0 0 0
          0 0 0 0 0 0
          0 0 0 0 0 0
          0 0 0 0 0 0
          0 0 0 0 0 0
          0 0 0 0 0 0
          0 0 0 0 0 0
          0 0 0 0 0 0
          0 0 0 0 0 0
          0 0 0 0 0 0
          0 0 0 0 0 0
          0 0 0 0 0 0
          0 0 0 0 0 0
          0 0 0 0 0 0
          0 0 0 0 0 0
          0 0 0 0 0 0
          0 0 0 0 0 0
          0 0 0 0 0 0
          0 0 0 0 0 0
          0 0 0 0 0 0
          0 0 0 0 0 0
          0 0 0 0 0 0
          0 0 0 0 0 0
          0 0 0 0 0 0
          0 0 0 0 0 0
          0 0 0 0 0 0
          0 0 0 0 0 0
          0 0 0 0 0 0
          0 0 0 0 0 0
          0 0 0 0 0 0
          0 0 0 0 0 0
          0 0 0 0 0 0
          0 0 0 0 0 0
          0 0 0 0 0 0
          0 0 0 0 0 0
          0 0 0 0 0 0
          0 0 0 0 0 0
          0 0 0 0 0 0
          0 0 0 0 0 0
          0 0 0 0 0 0
          0 0 0 0 0 0
          0 0 0 0 0 0
          0 0 0 0 0 0
          0 0 0 0 0 0
          0 0 0 0 0 0
          0 0 0 0 0 0
          0 0 0 0 0 0
          0 0 0 0 0 0
          0 0 0 0 0 0
          0 0 0 0 0 0
          0 0 0 0 0 0
          0 0 0 0 0 0
          0 0 0 0 0 0
          0 0 0 0 0 0
          0 0 0 0 0 0
          0 0 0 0 0 0
          0 0 0 0 0 0
          0 0 0 0 0 0
        </DataArray>
      </CellData>
      <Points>
        <DataArray type="Float64" Name="Points" NumberOfComponents="3" format="ascii" RangeMin="1.5587248686111821e-12" RangeMax="7.072658623177001">
          -0.9396926207859084 -0.3420201433256687 0 -0.9396926207859084 -0.3420201433256687 0.15
          -0.9396926207859084 -0.3420201433256687 0.05 -0.9396926207859084 -0.3420201433256687 0.1
          0.9396926207859084 0.3420201433256687 0 0.9396926207859084 0.3420201433256687 0.15
          0.9396926207859084 0.3420201433256687 0.05 0.9396926207859084 0.3420201433256687 0.1
          -0.563815572471545 -0.2052120859954012 0 -0.563815572471545 -0.2052120859954012 0.15
          -0.8927079897466852 -0.3249191361594115 0 -0.8457233587075264 -0.3078181289931778 0
          -0.7987387276683676 -0.2907171218269441 0 -0.751754096629167 -0.2736161146606952 0
          -0.7047694655897855 -0.2565151074943804 0 -0.6577848345503273 -0.2394141003280378 0
          -0.6108002035109266 -0.222313093161716 0 -0.8927079897466852 -0.3249191361594115 0.15
          -0.8457233587075264 -0.3078181289931778 0.15 -0.7987387276683676 -0.2907171218269441 0.15
          -0.751754096629167 -0.2736161146606952 0.15 -0.7047694655897855 -0.2565151074943804 0.15
          -0.6577848345503273 -0.2394141003280378 0.15 -0.6108002035109266 -0.222313093161716 0.15
          -0.563815572471545 -0.2052120859954012 0.05 -0.563815572471545 -0.2052120859954012 0.1
          -0.8927079897466852 -0.3249191361594115 0.05 -0.8927079897466852 -0.3249191361594115 0.1
          -0.8457233587075264 -0.3078181289931778 0.05 -0.8457233587075264 -0.3078181289931778 0.1
          -0.7987387276683676 -0.2907171218269441 0.05 -0.7987387276683676 -0.2907171218269441 0.1
          -0.751754096629167 -0.2736161146606952 0.05 -0.751754096629167 -0.2736161146606952 0.1
          -0.7047694655897855 -0.2565151074943804 0.05 -0.7047694655897855 -0.2565151074943804 0.1
          -0.6577848345503273 -0.2394141003280378 0.05 -0.6577848345503273 -0.2394141003280378 0.1
          -0.6108002035109266 -0.222313093161716 0.05 -0.6108002035109266 -0.222313093161716 0.1
          0.563815572471545 0.2052120859954012 0 0.563815572471545 0.2052120859954012 0.15
          -0.5168309414323757 -0.1881110788291637 0 -0.4698463103931936 -0.1710100716629215 0
          -0.4228616793539831 -0.153909064496669 0 -0.37587704831483 -0.1368080573304374 0
          -0.3288924172756628 -0.1197070501642006 0 -0.2819077862364787 -0.1026060429979577 0
          -0.2349231551973233 -0.08550503583172517 0 -0.1879385241581262 -0.06840402866547751 0
          -0.1409538931189708 -0.05130302149924507 0 -0.09396926207981549 -0.03420201433301262 0
          -0.04698463104064743 -0.01710100716677554 0 -1.464717236387969e-12 -5.331290964250002e-13 0
          0.04698463103797901 0.01710100716580429 0 0.09396926207740641 0.03420201433213579 0
          0.140953893116804 0.05130302149845636 0 0.1879385241562002 0.06840402866477649 0
          0.2349231551956257 0.08550503583110727 0 0.2819077862350881 0.1026060429974515 0
          0.3288924172745514 0.1197070501637961 0 0.3758770483139808 0.1368080573301283 0
          0.4228616793533755 0.1539090644964478 0 0.4698463103928161 0.1710100716627841 0
          0.5168309414322136 0.1881110788291047 0 -0.5168309414323757 -0.1881110788291637 0.15
          -0.4698463103931936 -0.1710100716629215 0.15 -0.4228616793539831 -0.153909064496669 0.15
          -0.37587704831483 -0.1368080573304374 0.15 -0.3288924172756628 -0.1197070501642006 0.15
          -0.2819077862364787 -0.1026060429979577 0.15 -0.2349231551973233 -0.08550503583172517 0.15
          -0.1879385241581262 -0.06840402866547751 0.15 -0.1409538931189708 -0.05130302149924507 0.15
          -0.09396926207981549 -0.03420201433301262 0.15 -0.04698463104064743 -0.01710100716677554 0.15
          -1.464717236387969e-12 -5.331290964250002e-13 0.15 0.04698463103797901 0.01710100716580429 0.15
          0.09396926207740641 0.03420201433213579 0.15 0.140953893116804 0.05130302149845636 0.15
          0.1879385241562002 0.06840402866477649 0.15 0.2349231551956257 0.08550503583110727 0.15
          0.2819077862350881 0.1026060429974515 0.15 0.3288924172745514 0.1197070501637961 0.15
          0.3758770483139808 0.1368080573301283 0.15 0.4228616793533755 0.1539090644964478 0.15
          0.4698463103928161 0.1710100716627841 0.15 0.5168309414322136 0.1881110788291047 0.15
          0.563815572471545 0.2052120859954012 0.05 0.563815572471545 0.2052120859954012 0.1
          -0.5168309414323757 -0.1881110788291637 0.05 -0.5168309414323757 -0.1881110788291637 0.1
          -0.4698463103931936 -0.1710100716629215 0.05 -0.4698463103931936 -0.1710100716629215 0.1
          -0.4228616793539831 -0.153909064496669 0.05 -0.4228616793539831 -0.153909064496669 0.1
          -0.37587704831483 -0.1368080573304374 0.05 -0.37587704831483 -0.1368080573304374 0.1
          -0.3288924172756628 -0.1197070501642006 0.05 -0.3288924172756628 -0.1197070501642006 0.1
          -0.2819077862364787 -0.1026060429979577 0.05 -0.2819077862364787 -0.1026060429979577 0.1
          -0.2349231551973233 -0.08550503583172517 0.05 -0.2349231551973233 -0.08550503583172517 0.1
          -0.1879385241581262 -0.06840402866547751 0.05 -0.1879385241581262 -0.06840402866547751 0.1
          -0.1409538931189708 -0.05130302149924507 0.05 -0.1409538931189708 -0.05130302149924507 0.1
          -0.09396926207981549 -0.03420201433301262 0.05 -0.09396926207981549 -0.03420201433301262 0.1
          -0.04698463104064743 -0.01710100716677554 0.05 -0.04698463104064743 -0.01710100716677554 0.1
          -1.464717236387969e-12 -5.331290964250002e-13 0.05 -1.464717236387969e-12 -5.331290964250002e-13 0.1
          0.04698463103797901 0.01710100716580429 0.05 0.04698463103797901 0.01710100716580429 0.1
          0.09396926207740641 0.03420201433213579 0.05 0.09396926207740641 0.03420201433213579 0.1
          0.140953893116804 0.05130302149845636 0.05 0.140953893116804 0.05130302149845636 0.1
          0.1879385241562002 0.06840402866477649 0.05 0.1879385241562002 0.06840402866477649 0.1
          0.2349231551956257 0.08550503583110727 0.05 0.2349231551956257 0.08550503583110727 0.1
          0.2819077862350881 0.1026060429974515 0.05 0.2819077862350881 0.1026060429974515 0.1
          0.3288924172745514 0.1197070501637961 0.05 0.3288924172745514 0.1197070501637961 0.1
          0.3758770483139808 0.1368080573301283 0.05 0.3758770483139808 0.1368080573301283 0.1
          0.4228616793533755 0.1539090644964478 0.05 0.4228616793533755 0.1539090644964478 0.1
          0.4698463103928161 0.1710100716627841 0.05 0.4698463103928161 0.1710100716627841 0.1
          0.5168309414322136 0.1881110788291047 0.05 0.5168309414322136 0.1881110788291047 0.1
          0.6108002035107695 0.2223130931616588 0 0.6577848345499331 0.2394141003278943 0
          0.7047694655890897 0.2565151074941272 0 0.7517540966282845 0.2736161146603741 0
          0.7987387276676674 0.2907171218266893 0 0.84572335870712 0.3078181289930299 0
          0.8927079897465255 0.3249191361593534 0 0.6108002035107695 0.2223130931616588 0.15
          0.6577848345499331 0.2394141003278943 0.15 0.7047694655890897 0.2565151074941272 0.15
          0.7517540966282845 0.2736161146603741 0.15 0.7987387276676674 0.2907171218266893 0.15
          0.84572335870712 0.3078181289930299 0.15 0.8927079897465255 0.3249191361593534 0.15
          0.6108002035107695 0.2223130931616588 0.05 0.6108002035107695 0.2223130931616588 0.1
          0.6577848345499331 0.2394141003278943 0.05 0.6577848345499331 0.2394141003278943 0.1
          0.7047694655890897 0.2565151074941272 0.05 0.7047694655890897 0.2565151074941272 0.1
          0.7517540966282845 0.2736161146603741 0.05 0.7517540966282845 0.2736161146603741 0.1
          0.7987387276676674 0.2907171218266893 0.05 0.7987387276676674 0.2907171218266893 0.1
          0.84572335870712 0.3078181289930299 0.05 0.84572335870712 0.3078181289930299 0.1
          0.8927079897465255 0.3249191361593534 0.05 0.8927079897465255 0.3249191361593534 0.1
          -5 -5 0 5 -5 0
          5 0.3420201433256687 0 -5 -0.3420201433256687 0
          -1.503508193257454 -0.3420201433256687 0 1.503508193257454 0.3420201433256687 0
          -5 -5 0.15 5 -5 0.15
          5 0.3420201433256687 0.15 1.503508193257454 0.3420201433256687 0.15
          -1.503508193257454 -0.3420201433256687 0.15 -5 -0.3420201433256687 0.15
          -3.333333333333128 -5 0 -1.666666666671804 -5 0
          -6.145306485905166e-12 -5 0 1.666666666662577 -5 0
          3.333333333331296 -5 0 5 -3.664494964171881 0
          5 -2.328989928344368 0 5 -0.9934848925094801 0
          -5 -1.506515107491622 0 -5 -2.671010071656164 0
          -5 -3.835505035827383 0 -3.998570440184368 -0.3420201433256687 0
          -3.27243691547885 -0.3420201433256687 0 -2.745919937455486 -0.3420201433256687 0
          -2.364144121655785 -0.3420201433256687 0 -2.08731973251695 -0.3420201433256687 0
          -1.886595254867177 -0.3420201433256687 0 -1.741050594114527 -0.3420201433256687 0
          -1.635516629445922 -0.3420201433256687 0 -1.55899429145252 -0.3420201433256687 0
          0.9866772518251171 0.3420201433256687 0 1.033661882864167 0.3420201433256687 0
          1.080646513903383 0.3420201433256687 0 1.127631144942599 0.3420201433256687 0
          1.174615775981829 0.3420201433256687 0 1.221600407021291 0.3420201433256687 0
          1.268585038060825 0.3420201433256687 0 1.315569669100344 0.3420201433256687 0
          1.362554300139893 0.3420201433256687 0 1.409538931179195 0.3420201433256687 0
          1.456523562218368 0.3420201433256687 0 -1.456523562218534 -0.3420201433256687 0
          -1.409538931179528 -0.3420201433256687 0 -1.362554300140305 -0.3420201433256687 0
          -1.315569669101081 -0.3420201433256687 0 -1.268585038061844 -0.3420201433256687 0
          -1.221600407022375 -0.3420201433256687 0 -1.174615775982834 -0.3420201433256687 0
          -1.127631144943308 -0.3420201433256687 0 -1.080646513903752 -0.3420201433256687 0
          -1.033661882864442 -0.3420201433256687 0 -0.9866772518252259 -0.3420201433256687 0
          1.558994291452272 0.3420201433256687 0 1.635516629445319 0.3420201433256687 0
          1.741050594113421 0.3420201433256687 0 1.886595254865464 0.3420201433256687 0
          2.087319732514187 0.3420201433256687 0 2.364144121651474 0.3420201433256687 0
          2.745919937449032 0.3420201433256687 0 3.272436915469714 0.3420201433256687 0
          3.998570440179254 0.3420201433256687 0 -3.333333333333128 -5 0.15
          -1.666666666671804 -5 0.15 -6.145306485905166e-12 -5 0.15
          1.666666666662577 -5 0.15 3.333333333331296 -5 0.15
          5 -3.664494964171881 0.15 5 -2.328989928344368 0.15
          5 -0.9934848925094801 0.15 3.998570440179254 0.3420201433256687 0.15
          3.272436915469714 0.3420201433256687 0.15 2.745919937449032 0.3420201433256687 0.15
          2.364144121651474 0.3420201433256687 0.15 2.087319732514187 0.3420201433256687 0.15
          1.886595254865464 0.3420201433256687 0.15 1.741050594113421 0.3420201433256687 0.15
          1.635516629445319 0.3420201433256687 0.15 1.558994291452272 0.3420201433256687 0.15
          1.456523562218368 0.3420201433256687 0.15 1.409538931179195 0.3420201433256687 0.15
          1.362554300139893 0.3420201433256687 0.15 1.315569669100344 0.3420201433256687 0.15
          1.268585038060825 0.3420201433256687 0.15 1.221600407021291 0.3420201433256687 0.15
          1.174615775981829 0.3420201433256687 0.15 1.127631144942599 0.3420201433256687 0.15
          1.080646513903383 0.3420201433256687 0.15 1.033661882864167 0.3420201433256687 0.15
          0.9866772518251171 0.3420201433256687 0.15 -0.9866772518252259 -0.3420201433256687 0.15
          -1.033661882864442 -0.3420201433256687 0.15 -1.080646513903752 -0.3420201433256687 0.15
          -1.127631144943308 -0.3420201433256687 0.15 -1.174615775982834 -0.3420201433256687 0.15
          -1.221600407022375 -0.3420201433256687 0.15 -1.268585038061844 -0.3420201433256687 0.15
          -1.315569669101081 -0.3420201433256687 0.15 -1.362554300140305 -0.3420201433256687 0.15
          -1.409538931179528 -0.3420201433256687 0.15 -1.456523562218534 -0.3420201433256687 0.15
          -1.55899429145252 -0.3420201433256687 0.15 -1.635516629445922 -0.3420201433256687 0.15
          -1.741050594114527 -0.3420201433256687 0.15 -1.886595254867177 -0.3420201433256687 0.15
          -2.08731973251695 -0.3420201433256687 0.15 -2.364144121655785 -0.3420201433256687 0.15
          -2.745919937455486 -0.3420201433256687 0.15 -3.27243691547885 -0.3420201433256687 0.15
          -3.998570440184368 -0.3420201433256687 0.15 -5 -1.506515107491622 0.15
          -5 -2.671010071656164 0.15 -5 -3.835505035827383 0.15
          -5 -5 0.05 -5 -5 0.1
          5 -5 0.05 5 -5 0.1
          5 0.3420201433256687 0.05 5 0.3420201433256687 0.1
          1.503508193257454 0.3420201433256687 0.05 1.503508193257454 0.3420201433256687 0.1
          -1.503508193257454 -0.3420201433256687 0.05 -1.503508193257454 -0.3420201433256687 0.1
          -5 -0.3420201433256687 0.05 -5 -0.3420201433256687 0.1
          1.490000065939998 -2.35127370712139 0 1.306571309077952 -1.018760302315439 0
          -0.2351517418205982 -1.831971034965115 0 1.019647435017903 -0.05512339986582959 0
          0.4907980385712303 -0.5643464763201445 0 -0.2354882145085662 -1.006874755599886 0
          -1.281146074624486 -1.410643205513731 0 1.658757374378224 -0.2870060612029395 0
          0.6963871981181442 -0.1586331152517746 0 0.3928002170518449 -0.2994354357762012 0
          -0.02150695276063516 -0.5228957848592145 0 -0.4612413371104563 -0.6955328320679304 0
          -0.7172163907933107 -0.6887097060434336 0 -1.239615894385239 -0.7991221367668315 0
          -2.022635882300555 -1.187361309170242 0 1.383069185181875 0.0458565730841912 0
          2.746598183353273 -1.640582107072187 0 -1.806789741544137 -0.8733165557800627 0
          0.9435114120341015 0.2084775368022988 0 0.7848361002732166 0.08889182931363807 0
          1.157627056236108 0.09088785616796835 0 0.1227562403308906 -0.2578250545534513 0
          1.700062845629766 -0.05161955145095127 0 -0.3269882935437047 -0.4289173454289329 0
          0.4947161648293517 -0.04615619938729557 0 2.253591999590939 -0.2952631429977531 0
          -0.6467735402442464 -0.4392655758166331 0 -0.767765608284774 -0.5002121625909466 0
          -0.986492085989949 -0.5576477604811904 0 -1.303259420582732 -0.6238478561764876 0
          -1.486924564554472 -0.6342846451139743 0 0.3488272363745304 -0.04939540578565541 0
          -3.444587391378754 -2.199962733491295 0 -1.748150029039601 -2.996281117587893 0
          -0.470821056517318 -0.3930566821561929 0 1.316187386608208 0.1847668394483318 0
          1.475295473429356 0.1620873982923615 0 0.929995374970254 -0.5025623226068471 0
          1.998522232113316 -1.219956441670941 0 0.496795791196556 -1.281425818546209 0
          -0.1941021556372547 -0.2440272741315794 0 0.1940551654637502 -0.08474998553491557 0
          -1.676953226817706 -0.6310736311173266 0 -2.02171945036315 -0.7243164360272927 0
          0.7598539067330131 0.1510208179890276 0 0.5144384512210585 0.07050096291660742 0
          0.8574718824241839 0.2152304718040553 0 0.4375942379830843 0.01267169377024805 0
          1.034945885357186 0.2149747212943596 0 0.03428521212376007 -0.0964670725283081 0
          -0.3778579859373831 -0.3001768877946778 0 -0.539860186549128 -0.3292170611945641 0
          1.311024877847197 -0.4025312439752983 0 -1.318707771841524 -0.4921493142982212 0
          -1.163366782913689 -0.5293604485297226 0 0.2843418460370377 -3.637603359136933 0
          2.426815621875804 -3.60048225914413 0 0.1610290337558827 -0.8904250649712996 0
          -0.7214327547946237 -0.4097917100892144 0 -0.6234788857168181 -0.3590973304195104 0
          1.851050191796903 0.01325288629157413 0 -2.973051517039978 -1.354978240442695 0
          1.559190435605442 0.1942151085148657 0 -0.990055551869683 -2.47101317575734 0
          -1.051159283515031 -0.4786574108649028 0 -0.93090570267864 -0.4683863213504038 0
          -0.878576000215775 -1.238097458612482 0 -1.406702726776974 -0.485536601858145 0
          -1.544571447078716 -0.496668736743971 0 -1.238901271586106 -0.4546249930853103 0
          0.1976228500934813 -0.4876572076696917 0 -2.63553523478242 -1.163321705474831 0
          -0.0566320653950909 -0.1955638269251353 0 0.2724872565764808 -0.02758308876111246 0
          0.6401310442446675 -2.452685465107447 0 -0.8931926323306335 -3.579838169261313 0
          -0.8342890013166722 -0.4449696165239991 0 1.351707452914902 0.2444787951887983 0
          1.262813541092975 0.2380178770137523 0 1.698139544041691 -3.324400651169769 0
          -2.919248944822935 -3.64548000741547 0 1.739465181875244 0.1444865575664483 0
          0.5389838773556802 -0.2533605771881819 0 0.8759476172044143 0.09261240565403626 0
          -0.2715964317236013 -0.6603674920302627 0 -0.5610705688507447 -0.8990381229655638 0
          1.675160777356984 -0.8006563260606341 0 -0.2453812467786064 -0.2406236235912139 0
          -2.475841994049167 -2.218118708326129 0 -0.4443073325934905 -0.2881717066242284 0
          0.652851387832786 0.09486901583319307 0 0.1218394155094751 -0.06773572322757994 0
          -3.563151257454678 -1.05946911483373 0 0.8879355157785211 -0.1154994448627519 0
          0.9187457029970403 -0.8123013276296388 0 1.041807718957867 0.09702206769988853 0
          0.9149127961958549 -1.694976199155172 0 0.6281378290940419 -0.4072793849932544 0
          0.9528014761407383 0.2694990002997194 0 -1.112329772813527 -0.9891244676832097 0
          0.8099170614841338 0.1806311156315438 0 3.874556345997386 -0.7299068772017689 0
          2.176325011015641 -0.1092944642079664 0 0.5859202710493094 -0.00362078240445762 0
          0.3660501172113748 0.02252881986279532 0 2.447064975462467 -0.002039895207402308 0
          1.21509994555433 -0.05598473905946125 0 0.4501781114701699 0.07224934275476332 0
          -1.672768472261473 -1.376725654265897 0 -1.912080849216702 -1.983259637317613 0
          1.935841432578017 -0.1660698720749318 0 1.927122150577744 -1.927098972321711 0
          2.554418281597807 -0.9175938935822465 0 -0.5715595624639745 -0.7072493199100746 0
          -0.01264277641722666 -0.05721746230151406 0 -0.0833910359285858 -0.3391764521534257 0
          0.9038584850302649 0.2648577036387558 0 -0.7434968755693959 -1.701127908645586 0
          1.442402402850578 0.2589147981197967 0 0.004287764211208179 -0.2828487555199168 0
          3.727273488597484 -2.502165579415673 0 1.122802537785738 0.2693305214306558 0
          0.2998532507865761 -0.1542916937278535 0 -0.01063208266386812 -2.554260892940984 0
          0.7032045582705453 0.009142773816820448 0 0.5268715444932596 -0.9361825364814614 0
          -1.139149539984343 -0.4140506595269721 0 -0.6879075192473918 -0.3234306092328203 0
          -0.5960559347115016 -0.2850269930350551 0 0.9721425750222751 -0.2640314324388725 0
          0.06989309928585212 -1.299188077247156 0 -0.3561326705561568 -1.516400375047766 0
          0.4635908181798798 -0.1388112446303609 0 -0.8935373905454014 -0.3896709502259036 0
          1.551146917899265 -1.463581865946514 0 -0.1562494380195361 -0.1448845621336405 0
          0.1972029403073263 0.005964059365962688 0 -1.318667966058697 -0.4075848778381216 0
          2.053486436767579 0.1312392335044211 0 -2.65921731510185 -2.753421560186605 0
          -0.7885308650559324 -0.3620195840515145 0 -2.172650382927021 -3.846305975005016 0
          1.639468581337306 0.2554271924391758 0 -1.815324809263347 -0.5248351712573952 0
          0.6821856777558266 0.1816132017606473 0 0.5736058082896918 0.1435774164600608 0
          1.234161540100858 0.2917578093505889 0 1.294278967910757 0.2915954727747287 0
          1.998628123841323 -0.4790069693243997 0 -0.4283761393166365 -0.216576512217848 0
          -0.5048154804631577 -0.2534068256112368 0 0.09877693346226422 -0.1392476596570935 0
          -0.3158202777879724 -0.2012101863353312 0 -2.803937852543379 -0.7819155550435126 0
          0.05167823001149353 -0.03449038101209265 0 -2.182412568541221 -0.5520311969019916 0
          -1.467623198114819 -0.4236938327399291 0 1.012807587936724 0.2921833030711562 0
          -0.5640698627276146 -0.4433328679933498 0 -0.9856834255088996 -0.4091022682712021 0
          -0.956715702655282 -0.8007436684536472 0 -0.09212798654249993 -0.7804904447219616 0
          0.4608882025181277 -0.4458439030694311 0 1.107957697399773 -0.6992779144250947 0
          -0.877674764998476 -0.4988010576062969 0 -0.8605835901405915 -0.6077446522796994 0
          1.016002939299012 -2.871843433776525 0 0.8552235174941314 0.2760101905689156 0
          0.3807694700432233 0.08680213697895364 0 -0.289216866799567 -0.3028838117440746 0
          0.2592013180318236 -0.3357271861479968 0 -0.05281665306936679 -0.0900842596317108 0
          1.868769170706686 -2.748031179566463 0 1.545849708171126 -0.1045985175087589 0
          -1.563974125810262 -0.4167807560524069 0 -1.650072146572596 -0.4522350469028802 0
          -0.420458922082563 -0.5534749556608327 0 1.506936929411023 0.04639562910307252 0
          1.25355494699864 0.09366223361684649 0 0.7318620008710335 0.2042720850666004 0
          0.5167292612983687 0.1311803159285021 0 0.128968086279372 -0.003048824912468279 0
          1.500702049678077 0.2893692261040536 0 1.384102045118873 0.2919940330577625 0
          1.063374795390732 0.2783211269811756 0 0.01248308908926045 -0.03109515451975862 0
          -0.2112411751060585 -0.1625848369619672 0 -3.849267923388681 -3.208194513062741 0
          -0.3734214590828787 -0.2144947330172594 0 2.536196450384631 -2.490756556652925 0
          -2.345383947710116 -1.526297664179521 0 1.536756935098191 0.3014722798468375 0
          1.183337258364812 0.2748873489774267 0 -0.55520107206948 -0.2474215435071485 0