<VTKFile type="UnstructuredGrid" version="1.0" byte_order="LittleEndian" header_type="UInt64">
  <UnstructuredGrid>
    <Piece NumberOfPoints="4680" NumberOfCells="3610">
      <PointData>
      </PointData>
      <CellData Scalars="attribute">
        <DataArray type="Int32" Name="attribute" format="ascii" RangeMin="0" RangeMax="1">
          1 1 1 1 1 1
          1 1 1 1 1 1
          1 1 1 1 1 1
          1 1 1 1 1 1
          1 1 1 1 1 1
          1 1 1 1 1 1
          1 1 1 1 1 1
          1 1 1 1 1 1
          1 1 1 1 1 1
          1 1 1 1 1 1
          1 1 1 1 1 1
          1 1 1 1 1 1
          1 1 1 1 1 1
          1 1 1 1 1 1
          1 1 1 1 1 1
          1 1 1 1 1 1
          1 1 1 1 1 1
          1 1 1 1 1 1
          1 1 1 1 1 1
          1 1 1 1 1 1
          1 1 1 1 1 1
          1 1 1 1 1 1
          1 1 1 1 1 1
          1 1 1 1 1 1
          1 1 1 1 1 1
          1 1 1 1 1 1
          1 1 1 1 1 1
          1 1 1 1 1 1
          1 1 1 1 1 1
          1 1 1 1 1 1
          1 1 1 1 1 1
          1 1 1 1 1 1
          1 1 1 1 1 1
          1 1 1 1 1 1
          1 1 1 1 1 1
          1 1 1 1 1 1
          1 1 1 1 1 1
          1 1 1 1 1 1
          1 1 1 1 1 1
          1 1 1 1 1 1
          1 1 1 1 1 1
          1 1 1 1 1 1
          1 1 1 1 1 1
          1 1 1 1 1 1
          1 1 1 1 1 1
          1 1 1 1 1 1
          1 1 1 1 1 1
          1 1 1 1 1 1
          1 1 1 1 1 1
          1 1 1 1 1 1
          1 1 1 1 1 1
          1 1 1 1 1 1
          1 1 1 1 1 1
          1 1 1 1 1 1
          1 1 1 1 1 1
          1 1 1 1 1 1
          1 1 1 1 1 1
          1 1 1 1 1 1
          1 1 1 1 1 1
          1 1 1 1 1 1
          1 1 1 1 1 1
          1 1 1 1 1 1
          1 1 1 1 1 1
          1 1 1 1 1 1
          1 1 1 1 1 1
          1 1 1 1 1 1
          1 1 1 1 1 1
          1 1 1 1 1 1
          1 1 1 1 1 1
          1 1 1 1 1 1
          1 1 1 1 1 1
          1 1 1 1 1 1
          1 1 1 1 1 1
          1 1 1 1 1 1
          1 1 1 1 1 1
          1 1 1 1 1 1
          1 1 1 1 1 1
          1 1 1 1 1 1
          1 1 1 1 1 1
          1 1 1 1 1 1
          1 1 1 1 1 1
          1 1 1 1 1 1
          1 1 1 1 1 1
          1 1 1 1 1 1
          1 1 1 1 1 1
          1 1 1 1 1 1
          1 1 1 1 1 1
          1 1 1 1 1 1
          1 1 1 1 1 1
          1 1 1 1 1 1
          1 1 1 1 1 1
          1 1 1 1 1 1
          1 1 1 1 1 1
          1 1 1 1 1 1
          1 1 1 1 1 1
          1 1 1 1 1 1
          1 1 1 1 1 1
          1 1 1 1 1 1
          1 1 1 1 1 1
          1 1 1 1 1 1
          1 1 1 1 1 1
          1 1 1 1 1 1
          1 1 1 1 1 1
          1 1 1 1 1 1
          1 1 1 1 1 1
          1 1 1 1 1 1
          1 1 1 1 1 1
          1 1 1 1 1 1
          1 1 1 1 1 1
          1 1 1 1 1 1
          1 1 1 1 1 1
          1 1 1 1 1 1
          1 1 1 1 1 1
          1 1 1 1 1 1
          1 1 1 1 1 1
          1 1 1 1 1 1
          1 1 1 1 1 1
          1 1 1 1 1 1
          1 1 1 1 1 1
          1 1 1 1 1 1
          1 1 1 1 1 1
          1 1 1 1 1 1
          1 1 1 1 1 1
          1 1 1 1 1 1
          1 1 1 1 1 1
          1 1 1 1 1 1
          1 1 1 1 1 1
          1 1 1 1 1 1
          1 1 1 1 1 1
          1 1 1 1 1 1
          1 1 1 1 1 1
          1 1 1 1 1 1
          1 1 1 1 1 1
          1 1 1 1 1 1
          1 1 1 1 1 1
          1 1 1 1 1 1
          1 1 1 1 1 1
          1 1 1 1 1 1
          1 1 1 1 1 1
          1 1 1 1 1 1
          1 1 1 1 1 1
          1 1 1 1 1 1
          1 1 1 1 1 1
          1 1 1 1 1 1
          1 1 1 1 1 1
          1 1 1 1 1 1
          1 1 1 1 1 1
          1 1 1 1 1 1
          1 1 1 1 1 1
          1 1 1 1 1 1
          1 1 1 1 1 1
          1 1 1 1 1 1
          1 1 1 1 1 1
          1 1 1 1 1 1
          1 1 1 1 1 1
          1 1 1 1 1 1
          1 1 1 1 1 1
          1 1 1 1 1 1
          1 1 1 1 1 1
          1 1 1 1 1 1
          1 1 1 1 1 1
          1 1 1 1 1 1
          1 1 1 1 1 1
          1 1 1 1 1 1
          1 1 1 1 1 1
          1 1 1 1 1 1
          1 1 1 1 1 1
          1 1 1 1 1 1
          1 1 1 1 1 1
          1 1 1 1 1 1
          1 1 1 1 1 1
          1 1 1 1 1 1
          1 1 1 1 1 1
          1 1 1 1 1 1
          1 1 1 1 1 1
          1 1 1 1 1 1
          1 1 1 1 1 1
          1 1 1 1 1 1
          1 1 1 1 1 1
          1 1 1 1 1 1
          1 1 1 1 1 1
          1 1 1 1 1 1
          1 1 1 1 1 1
          1 1 1 1 1 1
          1 1 1 1 1 1
          1 1 1 1 1 1
          1 1 1 1 1 1
          1 1 1 1 1 1
          1 1 1 1 1 1
          1 1 1 1 1 1
          1 1 1 1 1 1
          1 1 1 1 1 1
          1 1 1 1 1 1
          1 1 1 1 1 1
          1 1 1 1 1 1
          1 1 1 1 1 1
          1 1 1 1 1 1
          1 1 1 1 1 1
          1 1 1 1 1 1
          1 1 1 1 1 1
          1 1 1 1 1 1
          1 1 1 1 1 1
          1 1 1 1 1 1
          1 1 1 1 1 1
          1 1 1 1 1 1
          1 1 1 1 1 1
          1 1 1 1 1 1
          1 1 1 1 1 1
          1 1 1 1 1 1
          1 1 1 1 1 1
          1 1 1 1 1 1
          1 1 1 1 1 1
          1 1 1 1 1 1
          1 1 1 1 1 1
          1 1 1 1 1 1
          1 1 1 1 1 1
          1 1 1 1 1 1
          1 1 1 1 1 1
          1 1 1 1 1 1
          1 1 1 1 1 1
          1 1 1 1 1 1
          1 1 1 1 1 1
          1 1 1 1 1 1
          1 1 1 1 1 1
          1 1 1 1 1 1
          1 1 1 1 1 1
          1 1 1 1 1 1
          1 1 1 1 1 1
          1 1 1 1 1 1
          1 1 1 1 1 1
          1 1 1 1 1 1
          1 1 1 1 1 1
          1 1 1 1 1 1
          1 1 1 1 1 1
          1 1 1 1 1 1
          1 1 1 1 1 1
          1 1 1 1 1 1
          1 1 1 1 1 1
          1 1 1 1 1 1
          1 1 1 1 1 1
          1 1 1 1 1 1
          1 1 1 1 1 1
          1 1 1 1 1 1
          1 1 1 1 1 1
          1 1 1 1 1 1
          1 1 1 1 1 1
          1 1 1 1 1 1
          1 1 1 1 1 1
          1 1 1 1 1 1
          1 1 1 1 1 1
          1 1 1 1 1 1
          1 1 1 1 1 1
          1 1 1 1 1 1
          1 1 1 1 1 1
          1 1 1 1 1 1
          1 1 1 1 1 1
          1 1 1 1 1 1
          1 1 1 1 1 1
          1 1 1 1 1 1
          1 1 1 1 1 1
          1 1 1 1 1 1
          1 1 1 1 1 1
          1 1 1 1 1 1
          1 1 1 1 1 1
          1 1 1 1 1 1
          1 1 1 1 1 1
          1 1 1 1 1 1
          1 1 1 1 1 1
          1 1 1 1 1 1
          1 1 1 1 1 1
          1 1 1 1 1 1
          1 1 1 1 1 1
          1 1 1 1 1 1
          1 1 1 1 1 1
          1 1 1 1 1 1
          1 1 1 1 1 1
          1 1 1 1 1 1
          1 1 1 1 1 1
          1 1 1 1 1 1
          1 1 1 1 1 1
          1 1 1 1 1 1
          1 1 1 1 1 1
          1 1 1 1 1 1
          1 1 1 1 1 1
          1 1 1 1 1 1
          1 1 1 1 1 1
          1 1 1 1 1 1
          1 1 1 1 1 1
          1 1 1 1 1 1
          1 1 1 1 1 1
          1 1 1 1 1 1
          1 1 1 1 1 1
          1 1 1 1 1 1
          1 1 1 1 1 1
          1 1 1 1 1 1
          1 1 1 1 1 1
          1 1 1 1 1 1
          1 1 1 1 1 1
          1 1 1 1 1 1
          1 1 1 1 1 1
          1 1 1 1 1 0
          0 0 0 0 0 0
          0 0 0 0 0 0
          0 0 0 0 0 0
          0 0 0 0 0 0
          0 0 0 0 0 0
          0 0 0 0 0 0
          0 0 0 0 0 0
          0 0 0 0 0 0
          0 0 0 0 0 0
          0 0 0 0 0 0
          0 0 0 0 0 0
          0 0 0 0 0 0
          0 0 0 0 0 0
          0 0 0 0 0 0
          0 0 0 0 0 0
          0 0 0 0 0 0
          0 0 0 0 0 0
          0 0 0 0 0 0
          0 0 0 0 0 0
          0 0 0 0 0 0
          0 0 0 0 0 0
          0 0 0 0 0 0
          0 0 0 0 0 0
          0 0 0 0 0 0
          0 0 0 0 0 0
          0 0 0 0 0 0
          0 0 0 0 0 0
          0 0 0 0 0 0
          0 0 0 0 0 0
          0 0 0 0 0 0
          0 0 0 0 0 0
          0 0 0 0 0 0
          0 0 0 0 0 0
          0 0 0 0 0 0
          0 0 0 0 0 0
          0 0 0 0 0 0
          0 0 0 0 0 0
          0 0 0 0 0 0
          0 0 0 0 0 0
          0 0 0 0 0 0
          0 0 0 0 0 0
          0 0 0 0 0 0
          0 0 0 0 0 0
          0 0 0 0 0 0
          0 0 0 0 0 0
          0 0 0 0 0 0
          0 0 0 0 0 0
          0 0 0 0 0 0
          0 0 0 0 0 0
          0 0 0 0 0 0
          0 0 0 0 0 0
          0 0 0 0 0 0
          0 0 0 0 0 0
          0 0 0 0 0 0
          0 0 0 0 0 0
          0 0 0 0 0 0
          0 0 0 0 0 0
          0 0 0 0 0 0
          0 0 0 0 0 0
          0 0 0 0 0 0
          0 0 0 0 0 0
          0 0 0 0 0 0
          0 0 0 0 0 0
          0 0 0 0 0 0
          0 0 0 0 0 0
          0 0 0 0 0 0
          0 0 0 0 0 0
          0 0 0 0 0 0
          0 0 0 0 0 0
          0 0 0 0 0 0
          0 0 0 0 0 0
          0 0 0 0 0 0
          0 0 0 0 0 0
          0 0 0 0 0 0
          0 0 0 0 0 0
          0 0 0 0 0 0
          0 0 0 0 0 0
          0 0 0 0 0 0
          0 0 0 0 0 0
          0 0 0 0 0 0
          0 0 0 0 0 0
          0 0 0 0 0 0
          0 0 0 0 0 0
          0 0 0 0 0 0
          0 0 0 0 0 0
          0 0 0 0 0 0
          0 0 0 0 0 0
          0 0 0 0 0 0
          0 0 0 0 0 0
          0 0 0 0 0 0
          0 0 0 0 0 0
          0 0 0 0 0 0
          0 0 0 0 0 0
          0 0 0 0 0 0
          0 0 0 0 0 0
          0 0 0 0 0 0
          0 0 0 0 0 0
          0 0 0 0 0 0
          0 0 0 0 0 0
          0 0 0 0 0 0
          0 0 0 0 0 0
          0 0 0 0 0 0
          0 0 0 0 0 0
          0 0 0 0 0 0
          0 0 0 0 0 0
          0 0 0 0 0 0
          0 0 0 0 0 0
          0 0 0 0 0 0
          0 0 0 0 0 0
          0 0 0 0 0 0
          0 0 0 0 0 0
          0 0 0 0 0 0
          0 0 0 0 0 0
          0 0 0 0 0 0
          0 0 0 0 0 0
          0 0 0 0 0 0
          0 0 0 0 0 0
          0 0 0 0 0 0
          0 0 0 0 0 0
          0 0 0 0 0 0
          0 0 0 0 0 0
          0 0 0 0 0 0
          0 0 0 0 0 0
          0 0 0 0 0 0
          0 0 0 0 0 0
          0 0 0 0 0 0
          0 0 0 0 0 0
          0 0 0 0 0 0
          0 0 0 0 0 0
          0 0 0 0 0 0
          0 0 0 0 0 0
          0 0 0 0 0 0
          0 0 0 0 0 0
          0 0 0 0 0 0
          0 0 0 0 0 0
          0 0 0 0 0 0
          0 0 0 0 0 0
          0 0 0 0 0 0
          0 0 0 0 0 0
          0 0 0 0 0 0
          0 0 0 0 0 0
          0 0 0 0 0 0
          0 0 0 0 0 0
          0 0 0 0 0 0
          0 0 0 0 0 0
          0 0 0 0 0 0
          0 0 0 0 0 0
          0 0 0 0 0 0
          0 0 0 0 0 0
          0 0 0 0 0 0
          0 0 0 0 0 0
          0 0 0 0 0 0
          0 0 0 0 0 0
          0 0 0 0 0 0
          0 0 0 0 0 0
          0 0 0 0 0 0
          0 0 0 0 0 0
          0 0 0 0 0 0
          0 0 0 0 0 0
          0 0 0 0 0 0
          0 0 0 0 0 0
          0 0 0 0 0 0
          0 0 0 0 0 0
          0 0 0 0 0 0
          0 0 0 0 0 0
          0 0 0 0 0 0
          0 0 0 0 0 0
          0 0 0 0 0 0
          0 0 0 0 0 0
          0 0 0 0 0 0
          0 0 0 0 0 0
          0 0 0 0 0 0
          0 0 0 0 0 0
          0 0 0 0 0 0
          0 0 0 0 0 0
          0 0 0 0 0 0
          0 0 0 0 0 0
          0 0 0 0 0 0
          0 0 0 0 0 0
          0 0 0 0 0 0
          0 0 0 0 0 0
          0 0 0 0 0 0
          0 0 0 0 0 0
          0 0 0 0 0 0
          0 0 0 0 0 0
          0 0 0 0 0 0
          0 0 0 0 0 0
          0 0 0 0 0 0
          0 0 0 0 0 0
          0 0 0 0 0 0
          0 0 0 0 0 0
          0 0 0 0 0 0
          0 0 0 0 0 0
          0 0 0 0 0 0
          0 0 0 0 0 0
          0 0 0 0 0 0
          0 0 0 0 0 0
          0 0 0 0 0 0
          0 0 0 0 0 0
          0 0 0 0 0 0
          0 0 0 0 0 0
          0 0 0 0 0 0
          0 0 0 0 0 0
          0 0 0 0 0 0
          0 0 0 0 0 0
          0 0 0 0 0 0
          0 0 0 0 0 0
          0 0 0 0 0 0
          0 0 0 0 0 0
          0 0 0 0 0 0
          0 0 0 0 0 0
          0 0 0 0 0 0
          0 0 0 0 0 0
          0 0 0 0 0 0
          0 0 0 0 0 0
          0 0 0 0 0 0
          0 0 0 0 0 0
          0 0 0 0 0 0
          0 0 0 0 0 0
          0 0 0 0 0 0
          0 0 0 0 0 0
          0 0 0 0 0 0
          0 0 0 0 0 0
          0 0 0 0 0 0
          0 0 0 0 0 0
          0 0 0 0 0 0
          0 0 0 0 0 0
          0 0 0 0 0 0
          0 0 0 0 0 0
          0 0 0 0 0 0
          0 0 0 0 0 0
          0 0 0 0 0 0
          0 0 0 0 0 0
          0 0 0 0 0 0
          0 0 0 0 0 0
          0 0 0 0 0 0
          0 0 0 0 0 0
          0 0 0 0 0 0
          0 0 0 0 0 0
          0 0 0 0 0 0
          0 0 0 0 0 0
          0 0 0 0 0 0
          0 0 0 0 0 0
          0 0 0 0 0 0
          0 0 0 0 0 0
          0 0 0 0 0 0
          0 0 0 0 0 0
          0 0 0 0 0 0
          0 0 0 0 0 0
          0 0 0 0 0 0
          0 0 0 0 0 0
          0 0 0 0 0 0
          0 0 0 0 0 0
          0 0 0 0 0 0
          0 0 0 0 0 0
          0 0 0 0 0 0
          0 0 0 0 0 0
          0 0 0 0 0 0
          0 0 0 0 0 0
          0 0 0 0 0 0
          0 0 0 0 0 0
          0 0 0 0 0 0
          0 0 0 0 0 0
          0 0 0 0 0 0
          0 0 0 0 0 0
          0 0 0 0 0 0
          0 0 0 0 0 0
          0 0 0 0 0 0
          0 0 0 0 0 0
          0 0 0 0 0 0
          0 0 0 0 0 0
          0 0 0 0 0 0
          0 0 0 0 0 0
          0 0 0 0 0 0
          0 0 0 0 0 0
          0 0 0 0 0 0
          0 0 0 0 0 0
          0 0 0 0 0 0
          0 0 0 0 0 0
          0 0 0 0 0 0
          0 0 0 0 0 0
          0 0 0 0 0 0
          0 0 0 0 0 0
          0 0 0 0 0 0
          0 0 0 0 0 0
          0 0 0 0 0 0
          0 0 0 0 0 0
          0 0 0 0 0 0
          0 0 0 0 0 0
          0 0 0 0 0 0
          0 0 0 0 0 0
          0 0 0 0 0 0
          0 0 0 0 0 0
          0 0 0 0 0 0
          0 0 0 0 0 0
          0 0 0 0 0 0
          0 0 0 0 0 0
          0 0 0 0 0 0
          0 0 0 0 0 0
          0 0 0 0 0 0
          0 0 0 0
        </DataArray>
      </CellData>
      <Points>
        <DataArray type="Float64" Name="Points" NumberOfComponents="3" format="ascii" RangeMin="0" RangeMax="4.5">
          0 0 0 2 0 0
          2 2.7 0 0 0.7 0
          0 0 0.5 2 0 0.5
          2 2.7 0.5 0 0.7 0.5
          0.1052631578945239 0 0 0.2105263157890858 0 0
          0.3157894736835701 0 0 0.4210526315779997 0 0
          0.5263157894724292 0 0 0.6315789473668588 0 0
          0.7368421052612883 0 0 0.842105263155718 0 0
          0.9473684210501476 0 0 1.05263157894487 0 0
          1.157894736839884 0 0 1.263157894734899 0 0
          1.368421052629913 0 0 1.473684210524927 0 0
          1.578947368419942 0 0 1.684210526314956 0 0
          1.789473684209971 0 0 1.894736842104985 0 0
          2 0.1421052631576266 0 2 0.2842105263153183 0
          2 0.4263157894728838 0 2 0.5684210526303716 0
          2 0.7105263157878722 0 2 0.8526315789453194 0
          2 0.9947368421027815 0 2 1.136842105260265 0
          2 1.278947368417748 0 2 1.421052631575627 0
          2 1.563157894733944 0 2 1.705263157892174 0
          2 1.847368421050404 0 2 1.989473684208707 0
          2 2.13157894736673 0 2 2.273684210524946 0
          2 2.415789473683367 0 2 2.557894736841597 0
          1.894736842105337 2.594736842105337 0 1.789473684210673 2.489473684210673 0
          1.684210526316375 2.384210526316375 0 1.578947368422295 2.278947368422295 0
          1.473684210528216 2.173684210528216 0 1.368421052634137 2.068421052634137 0
          1.263157894740057 1.963157894740057 0 1.157894736845978 1.857894736845978 0
          1.052631578951899 1.752631578951899 0 0.9473684210572351 1.647368421057235 0
          0.8421052631619868 1.542105263161987 0 0.7368421052667384 1.436842105266739 0
          0.6315789473714901 1.33157894737149 0 0.5263157894762416 1.226315789476242 0
          0.4210526315809933 1.121052631580993 0 0.3157894736857449 1.015789473685745 0
          0.2105263157904966 0.9105263157904968 0 0.1052631578952483 0.8052631578952485 0
          0 0.6631578947369117 0 0 0.6263157894738668 0
          0 0.5894736842107738 0 0 0.5526315789476901 0
          0 0.5157894736846451 0 0 0.4789473684215307 0
          0 0.4421052631584796 0 0 0.4052631578954348 0
          0 0.3684210526323899 0 0 0.3315789473692354 0
          0 0.2947368421059821 0 0 0.2578947368427287 0
          0 0.2210526315794754 0 0 0.1842105263162581 0
          0 0.1473684210530011 0 0 0.1105263157897461 0
          0 0.07368421052651197 0 0 0.03684210526325027 0
          0.1052631578945239 0 0.5 0.2105263157890858 0 0.5
          0.3157894736835701 0 0.5 0.4210526315779997 0 0.5
          0.5263157894724292 0 0.5 0.6315789473668588 0 0.5
          0.7368421052612883 0 0.5 0.842105263155718 0 0.5
          0.9473684210501476 0 0.5 1.05263157894487 0 0.5
          1.157894736839884 0 0.5 1.263157894734899 0 0.5
          1.368421052629913 0 0.5 1.473684210524927 0 0.5
          1.578947368419942 0 0.5 1.684210526314956 0 0.5
          1.789473684209971 0 0.5 1.894736842104985 0 0.5
          2 0.1421052631576266 0.5 2 0.2842105263153183 0.5
          2 0.4263157894728838 0.5 2 0.5684210526303716 0.5
          2 0.7105263157878722 0.5 2 0.8526315789453194 0.5
          2 0.9947368421027815 0.5 2 1.136842105260265 0.5
          2 1.278947368417748 0.5 2 1.421052631575627 0.5
          2 1.563157894733944 0.5 2 1.705263157892174 0.5
          2 1.847368421050404 0.5 2 1.989473684208707 0.5
          2 2.13157894736673 0.5 2 2.273684210524946 0.5
          2 2.415789473683367 0.5 2 2.557894736841597 0.5
          1.894736842105337 2.594736842105337 0.5 1.789473684210673 2.489473684210673 0.5
          1.684210526316375 2.384210526316375 0.5 1.578947368422295 2.278947368422295 0.5
          1.473684210528216 2.173684210528216 0.5 1.368421052634137 2.068421052634137 0.5
          1.263157894740057 1.963157894740057 0.5 1.157894736845978 1.857894736845978 0.5
          1.052631578951899 1.752631578951899 0.5 0.9473684210572351 1.647368421057235 0.5
          0.8421052631619868 1.542105263161987 0.5 0.7368421052667384 1.436842105266739 0.5
          0.6315789473714901 1.33157894737149 0.5 0.5263157894762416 1.226315789476242 0.5
          0.4210526315809933 1.121052631580993 0.5 0.3157894736857449 1.015789473685745 0.5
          0.2105263157904966 0.9105263157904968 0.5 0.1052631578952483 0.8052631578952485 0.5
          0 0.6631578947369117 0.5 0 0.6263157894738668 0.5
          0 0.5894736842107738 0.5 0 0.5526315789476901 0.5
          0 0.5157894736846451 0.5 0 0.4789473684215307 0.5
          0 0.4421052631584796 0.5 0 0.4052631578954348 0.5
          0 0.3684210526323899 0.5 0 0.3315789473692354 0.5
          0 0.2947368421059821 0.5 0 0.2578947368427287 0.5
          0 0.2210526315794754 0.5 0 0.1842105263162581 0.5
          0 0.1473684210530011 0.5 0 0.1105263157897461 0.5
          0 0.07368421052651197 0.5 0 0.03684210526325027 0.5
          0 0 0.1 0 0 0.2
          0 0 0.3 0 0 0.4
          2 0 0.1 2 0 0.2
          2 0 0.3 2 0 0.4
          2 2.7 0.1 2 2.7 0.2
          2 2.7 0.3 2 2.7 0.4
          0 0.7 0.1 0 0.7 0.2
          0 0.7 0.3 0 0.7 0.4
          0.105263157894562 0.04238227146824437 0 0.1052631578946002 0.08476454293650303 0
          0.1052631578946383 0.127146814404729 0 0.1052631578946764 0.1695290858729704 0
          0.1052631578947145 0.2119113573412146 0 0.1052631578947527 0.2542936288094182 0
          0.1052631578947908 0.2966759002776569 0 0.1052631578948289 0.3390581717458966 0
          0.1052631578948671 0.3814404432141363 0 0.1052631578949052 0.4238227146823032 0
          0.1052631578949433 0.4662049861503894 0 0.1052631578949815 0.5085872576184708 0
          0.1052631578950195 0.5509695290865583 0 0.1052631578950577 0.5933518005547095 0
          0.1052631578950958 0.6357340720227805 0 0.1052631578951339 0.678116343490898 0
          0.1052631578951721 0.7204986149590351 0 0.1052631578952102 0.7628808864271166 0
          0.21052631578916 0.04792243767323848 0 0.2105263157892344 0.09584487534649402 0
          0.2105263157893086 0.1437673130197117 0 0.2105263157893829 0.1916897506929396 0
          0.210526315789457 0.239612188366171 0 0.2105263157895313 0.287534626039361 0
          0.2105263157896056 0.3354570637125849 0 0.2105263157896798 0.3833795013858111 0
          0.2105263157897541 0.4313019390590372 0 0.2105263157898283 0.4792243767322166 0
          0.2105263157899026 0.5271468144053438 0 0.2105263157899769 0.5750692520784619 0
          0.2105263157900512 0.6229916897515858 0 0.2105263157901253 0.6709141274247739 0
          0.2105263157901996 0.7188365650978704 0 0.2105263157902739 0.7667590027710218 0
          0.2105263157903481 0.8146814404442033 0 0.2105263157904224 0.8626038781173213 0
          0.3157894736836845 0.05346260387823257 0 0.315789473683799 0.106925207756485 0
          0.3157894736839135 0.1603878116346944 0 0.315789473684028 0.213850415512909 0
          0.3157894736841425 0.2673130193911274 0 0.3157894736842569 0.3207756232693039 0
          0.3157894736843714 0.3742382271475129 0 0.3157894736844858 0.4277008310257254 0
          0.3157894736846002 0.481163434903938 0 0.3157894736847148 0.5346260387821298 0
          0.3157894736848292 0.5880886426602984 0 0.3157894736849437 0.6415512465384532 0
          0.3157894736850582 0.6950138504166132 0 0.3157894736851726 0.7484764542948381 0
          0.3157894736852871 0.8019390581729604 0 0.3157894736854016 0.8554016620511458 0
          0.315789473685516 0.9088642659293715 0 0.3157894736856305 0.9623268698075265 0
          0.4210526315781573 0.05900277008322666 0 0.4210526315783149 0.118005540166476 0
          0.4210526315784724 0.1770083102496771 0 0.4210526315786298 0.2360110803328783 0
          0.4210526315787875 0.2950138504160837 0 0.4210526315789451 0.3540166204992466 0
          0.4210526315791024 0.413019390582441 0 0.4210526315792603 0.4720221606656398 0
          0.4210526315794177 0.5310249307488389 0 0.4210526315795752 0.5900277008320429 0
          0.4210526315797329 0.649030470915253 0 0.4210526315798903 0.7080332409984443 0
          0.421052631580048 0.7670360110816407 0 0.4210526315802054 0.8260387811649028 0
          0.421052631580363 0.8850415512480507 0 0.4210526315805206 0.9440443213312699 0
          0.4210526315806781 1.00304709141454 0 0.4210526315808358 1.062049861497731 0
          0.5263157894726299 0.06454293628822076 0 0.5263157894728304 0.1290858725764671 0
          0.5263157894730311 0.1936288088646599 0 0.5263157894732319 0.2581717451528476 0
          0.5263157894734324 0.32271468144104 0 0.5263157894736331 0.3872576177291893 0
          0.5263157894738337 0.4518005540173691 0 0.5263157894740343 0.5163434903055544 0
          0.5263157894742352 0.5808864265937397 0 0.5263157894744358 0.6454293628819563 0
          0.5263157894746363 0.7099722991702073 0 0.526315789474837 0.7745152354584355 0
          0.5263157894750378 0.8390581717466683 0 0.5263157894752383 0.903601108034967 0
          0.526315789475439 0.9681440443231406 0 0.5263157894756397 1.032686980611394 0
          0.5263157894758402 1.097229916899708 0 0.526315789476041 1.161772853187936 0
          0.6315789473671024 0.0700831024932149 0 0.6315789473673462 0.1401662049864581 0
          0.63157894736759 0.2102493074796427 0 0.6315789473678338 0.2803324099728169 0
          0.6315789473680774 0.3504155124659966 0 0.6315789473683214 0.4204986149591322 0
          0.6315789473685651 0.4905817174522972 0 0.631578947368809 0.5606648199454689 0
          0.6315789473690526 0.6307479224386406 0 0.6315789473692964 0.7008310249318697 0
          0.63157894736954 0.770914127425162 0 0.6315789473697838 0.8409972299184268 0
          0.6315789473700276 0.9110803324116958 0 0.6315789473702714 0.9811634349050314 0
          0.6315789473705152 1.051246537398231 0 0.6315789473707588 1.121329639891518 0
          0.6315789473710026 1.191412742384876 0 0.6315789473712462 1.261495844878141 0
          0.7368421052615752 0.07562326869820896 0 0.7368421052618621 0.1512465373964492 0
          0.7368421052621488 0.2268698060946253 0 0.7368421052624359 0.3024930747927863 0
          0.7368421052627228 0.378116343490953 0 0.7368421052630094 0.4537396121890749 0
          0.7368421052632963 0.5293628808872255 0 0.7368421052635832 0.6049861495853833 0
          0.7368421052638698 0.6806094182835416 0 0.7368421052641567 0.7562326869817827 0
          0.7368421052644436 0.8318559556801164 0 0.7368421052647305 0.9074792243784179 0
          0.7368421052650174 0.9831024930767234 0 0.7368421052653042 1.058725761775096 0
          0.7368421052655911 1.134349030473321 0 0.736842105265878 1.209972299171642 0
          0.7368421052661647 1.285595567870044 0 0.7368421052664516 1.361218836568346 0
          0.8421052631560477 0.08116343490320309 0 0.8421052631563779 0.1623268698064401 0
          0.8421052631567076 0.2434903047096081 0 0.8421052631570375 0.3246537396127555 0
          0.8421052631573678 0.4058171745159094 0 0.8421052631576975 0.4869806094190177 0
          0.8421052631580275 0.5681440443221534 0 0.8421052631583574 0.649307479225298 0
          0.8421052631586874 0.7304709141284422 0 0.8421052631590173 0.8116343490316961 0
          0.8421052631593473 0.8927977839350711 0 0.8421052631596773 0.9739612188384092 0
          0.842105263160007 1.055124653741751 0 0.842105263160337 1.136288088645161 0
          0.8421052631606669 1.217451523548411 0 0.8421052631609969 1.298614958451766 0
          0.8421052631613268 1.379778393355212 0 0.8421052631616568 1.460941828258551 0
          0.9473684210505207 0.08670360110819715 0 0.9473684210508937 0.1734072022164312 0
          0.9473684210512667 0.2601108033245909 0 0.9473684210516395 0.3468144044327247 0
          0.9473684210520128 0.4335180055408657 0 0.9473684210523858 0.5202216066489606 0
          0.9473684210527589 0.6069252077570814 0 0.9473684210531317 0.6936288088652122 0
          0.9473684210535047 0.7803324099733433 0 0.947368421053878 0.8670360110816094 0
          0.947368421054251 0.9537396121900253 0 0.947368421054624 1.0404432132984 0
          0.9473684210549971 1.127146814406778 0 0.9473684210553701 1.213850415515225 0
          0.9473684210557429 1.300554016623501 0 0.9473684210561162 1.38725761773189 0
          0.947368421056489 1.47396121884038 0 0.947368421056862 1.560664819948756 0
          1.05263157894524 0.09224376731316047 0 1.05263157894561 0.1844875346263606 0
          1.05263157894598 0.2767313019394813 0 1.052631578946349 0.3689750692525709 0
          1.05263157894672 0.4612188365656683 0 1.052631578947089 0.5534626038787186 0
          1.05263157894746 0.6457063711917941 0 1.052631578947829 0.7379501385048807 0
          1.052631578948199 0.8301939058179671 0 1.052631578948569 0.9224376731312149 0
          1.052631578948939 1.014681440444642 0 1.052631578949309 1.106925207758022 0
          1.052631578949679 1.199168975071406 0 1.052631578950049 1.291412742384858 0
          1.052631578950419 1.38365650969813 0 1.052631578950789 1.475900277011522 0
          1.052631578951159 1.568144044325026 0 1.052631578951529 1.660387811638406 0
          1.157894736840205 0.09778393351809304 0 1.157894736840526 0.1955678670362286 0
          1.157894736840847 0.2933518005542793 0 1.157894736841167 0.3911357340722941 0
          1.157894736841488 0.4889196675903171 0 1.157894736841809 0.5867036011082922 0
          1.157894736842129 0.6844875346262913 0 1.15789473684245 0.7822714681443026 0
          1.157894736842771 0.8800554016623143 0 1.157894736843091 0.977839335180513 0
          1.157894736843412 1.075623268698919 0 1.157894736843733 1.173407202217275 0
          1.157894736844054 1.271191135735633 0 1.157894736844374 1.368975069254061 0
          1.157894736844695 1.466759002772297 0 1.157894736845016 1.564542936290661 0
          1.157894736845336 1.662326869809148 0 1.157894736845657 1.760110803327504 0
          1.26315789473517 0.1033240997230256 0 1.263157894735442 0.2066481994460965 0
          1.263157894735713 0.3099722991690775 0 1.263157894735985 0.4132963988920172 0
          1.263157894736256 0.5166204986149655 0 1.263157894736528 0.6199445983378659 0
          1.263157894736799 0.7232686980607886 0 1.263157894737071 0.8265927977837251 0
          1.263157894737342 0.9299168975066613 0 1.263157894737614 1.033240997229811 0
          1.263157894737885 1.136565096953197 0 1.263157894738157 1.239889196676527 0
          1.263157894738428 1.343213296399861 0 1.2631578947387 1.446537396123264 0
          1.263157894738971 1.549861495846464 0 1.263157894739243 1.6531855955698 0
          1.263157894739514 1.75650969529327 0 1.263157894739785 1.859833795016601 0
          1.368421052630136 0.1088642659279582 0 1.368421052630358 0.2177285318559645 0
          1.36842105263058 0.3265927977838758 0 1.368421052630802 0.4354570637117404 0
          1.368421052631025 0.5443213296396144 0 1.368421052631247 0.6531855955674397 0
          1.36842105263147 0.7620498614952862 0 1.368421052631692 0.8709141274231474 0
          1.368421052631914 0.9797783933510087 0 1.368421052632136 1.088642659279109 0
          1.368421052632358 1.197506925207474 0 1.368421052632581 1.306371191135781 0
          1.368421052632803 1.415235457064089 0 1.368421052633025 1.524099722992467 0
          1.368421052633248 1.632963988920631 0 1.36842105263347 1.741828254848941 0
          1.368421052633692 1.850692520777393 0 1.368421052633914 1.959556786705699 0
          1.473684210525101 0.1144044321328908 0 1.473684210525274 0.2288088642658324 0
          1.473684210525447 0.3432132963986739 0 1.47368421052562 0.4576177285314635 0
          1.473684210525793 0.5720221606642634 0 1.473684210525966 0.6864265927970131 0
          1.473684210526139 0.8008310249297833 0 1.473684210526312 0.9152354570625694 0
          1.473684210526485 1.029639889195356 0 1.473684210526658 1.144044321328406 0
          1.473684210526831 1.258448753461752 0 1.473684210527004 1.372853185595034 0
          1.473684210527177 1.487257617728316 0 1.47368421052735 1.60166204986167 0
          1.473684210527524 1.716066481994798 0 1.473684210527696 1.830470914128079 0
          1.47368421052787 1.944875346261514 0 1.473684210528043 2.059279778394796 0
          1.578947368420066 0.1199445983378234 0 1.57894736842019 0.2398891966757004 0