# vtk DataFile Version 5.1
vtk output
ASCII
DATASET UNSTRUCTURED_GRID
FIELD FieldData 2
fracture_info 4 15 int
4 1 50 0 9 1 55 0 14
1 60 0 19 1 65 0 24 1
70 0 29 1 75 0 34 1 80
0 39 1 85 0 44 1 90 0
49 1 95 0 70 3 75 2 71
3 76 2 72 3 77 2 73 3
78 2 74 3 79 2
duplicated_points_info 3 32 int
5 132 -1
11 138 -1
17 144 -1
23 150 -1
29 156 -1
35 162 204
41 210 -1
47 216 -1
53 222 -1
59 228 -1
65 234 -1
71 168 -1
77 174 -1
83 180 -1
89 186 -1
95 192 -1
101 198 240
107 246 -1
113 252 -1
119 258 -1
125 264 -1
131 270 -1
163 205 -1
164 206 -1
165 207 -1
166 208 -1
167 209 -1
199 241 -1
200 242 -1
201 243 -1
202 244 -1
203 245 -1
POINTS 276 float
-5 0 0 -4 0 0 -3 0 0
-2 0 0 -1 0 0 0 0 0
-5 1 0 -4 1 0 -3 1 0
-2 1 0 -1 1 0 0 1 0
-5 2 0 -4 2 0 -3 2 0
-2 2 0 -1 2 0 0 2 0
-5 3 0 -4 3 0 -3 3 0
-2 3 0 -1 3 0 0 3 0
-5 4 0 -4 4 0 -3 4 0
-2 4 0 -1 4 0 0 4 0
-5 5 0 -4 5 0 -3 5 0
-2 5 0 -1 5 0 0 5 0
-5 6 0 -4 6 0 -3 6 0
-2 6 0 -1 6 0 0 6 0
-5 7 0 -4 7 0 -3 7 0
-2 7 0 -1 7 0 0 7 0
-5 8 0 -4 8 0 -3 8 0
-2 8 0 -1 8 0 0 8 0
-5 9 0 -4 9 0 -3 9 0
-2 9 0 -1 9 0 0 9 0
-5 10 0 -4 10 0 -3 10 0
-2 10 0 -1 10 0 0 10 0
-5 0 1 -4 0 1 -3 0 1
-2 0 1 -1 0 1 0 0 1
-5 1 1 -4 1 1 -3 1 1
-2 1 1 -1 1 1 0 1 1
-5 2 1 -4 2 1 -3 2 1
-2 2 1 -1 2 1 0 2 1
-5 3 1 -4 3 1 -3 3 1
-2 3 1 -1 3 1 0 3 1
-5 4 1 -4 4 1 -3 4 1
-2 4 1 -1 4 1 0 4 1
-5 5 1 -4 5 1 -3 5 1
-2 5 1 -1 5 1 0 5 1
-5 6 1 -4 6 1 -3 6 1
-2 6 1 -1 6 1 0 6 1
-5 7 1 -4 7 1 -3 7 1
-2 7 1 -1 7 1 0 7 1
-5 8 1 -4 8 1 -3 8 1
-2 8 1 -1 8 1 0 8 1
-5 9 1 -4 9 1 -3 9 1
-2 9 1 -1 9 1 0 9 1
-5 10 1 -4 10 1 -3 10 1
-2 10 1 -1 10 1 0 10 1
0 0 0 1 0 0 2 0 0
3 0 0 4 0 0 5 0 0
0 1 0 1 1 0 2 1 0
3 1 0 4 1 0 5 1 0
0 2 0 1 2 0 2 2 0
3 2 0 4 2 0 5 2 0
0 3 0 1 3 0 2 3 0
3 3 0 4 3 0 5 3 0
0 4 0 1 4 0 2 4 0
3 4 0 4 4 0 5 4 0
0 5 0 1 5 0 2 5 0
3 5 0 4 5 0 5 5 0
0 0 1 1 0 1 2 0 1
3 0 1 4 0 1 5 0 1
0 1 1 1 1 1 2 1 1
3 1 1 4 1 1 5 1 1
0 2 1 1 2 1 2 2 1
3 2 1 4 2 1 5 2 1
0 3 1 1 3 1 2 3 1
3 3 1 4 3 1 5 3 1
0 4 1 1 4 1 2 4 1
3 4 1 4 4 1 5 4 1
0 5 1 1 5 1 2 5 1
3 5 1 4 5 1 5 5 1
0 5 0 1 5 0 2 5 0
3 5 0 4 5 0 5 5 0
0 6 0 1 6 0 2 6 0
3 6 0 4 6 0 5 6 0
0 7 0 1 7 0 2 7 0
3 7 0 4 7 0 5 7 0
0 8 0 1 8 0 2 8 0
3 8 0 4 8 0 5 8 0
0 9 0 1 9 0 2 9 0
3 9 0 4 9 0 5 9 0
0 10 0 1 10 0 2 10 0
3 10 0 4 10 0 5 10 0
0 5 1 1 5 1 2 5 1
3 5 1 4 5 1 5 5 1
0 6 1 1 6 1 2 6 1
3 6 1 4 6 1 5 6 1
0 7 1 1 7 1 2 7 1
3 7 1 4 7 1 5 7 1
0 8 1 1 8 1 2 8 1
3 8 1 4 8 1 5 8 1
0 9 1 1 9 1 2 9 1
3 9 1 4 9 1 5 9 1
0 10 1 1 10 1 2 10 1
3 10 1 4 10 1 5 10 1
CELLS 101 800
OFFSETS vtktypeint64
0 8 16 24 32 40 48 56 64
72 80 88 96 104 112 120 128 136
144 152 160 168 176 184 192 200 208
216 224 232 240 248 256 264 272 280
288 296 304 312 320 328 336 344 352
360 368 376 384 392 400 408 416 424
432 440 448 456 464 472 480 488 496
504 512 520 528 536 544 552 560 568
576 584 592 600 608 616 624 632 640
648 656 664 672 680 688 696 704 712
720 728 736 744 752 760 768 776 784
792 800
CONNECTIVITY vtktypeint64
0 1 7 6 66 67 73 72 1
2 8 7 67 68 74 73 2 3
9 8 68 69 75 74 3 4 10
9 69 70 76 75 4 5 11 10
70 71 77 76 6 7 13 12 72
73 79 78 7 8 14 13 73 74
80 79 8 9 15 14 74 75 81
80 9 10 16 15 75 76 82 81
10 11 17 16 76 77 83 82 12
13 19 18 78 79 85 84 13 14
20 19 79 80 86 85 14 15 21
20 80 81 87 86 15 16 22 21
81 82 88 87 16 17 23 22 82
83 89 88 18 19 25 24 84 85
91 90 19 20 26 25 85 86 92
91 20 21 27 26 86 87 93 92
21 22 28 27 87 88 94 93 22
23 29 28 88 89 95 94 24 25
31 30 90 91 97 96 25 26 32
31 91 92 98 97 26 27 33 32
92 93 99 98 27 28 34 33 93
94 100 99 28 29 35 34 94 95
101 100 30 31 37 36 96 97 103
102 31 32 38 37 97 98 104 103
32 33 39 38 98 99 105 104 33
34 40 39 99 100 106 105 34 35
41 40 100 101 107 106 36 37 43
42 102 103 109 108 37 38 44 43
103 104 110 109 38 39 45 44 104
105 111 110 39 40 46 45 105 106
112 111 40 41 47 46 106 107 113
112 42 43 49 48 108 109 115 114
43 44 50 49 109 110 116 115 44
45 51 50 110 111 117 116 45 46
52 51 111 112 118 117 46 47 53
52 112 113 119 118 48 49 55 54
114 115 121 120 49 50 56 55 115
116 122 121 50 51 57 56 116 117
123 122 51 52 58 57 117 118 124
123 52 53 59 58 118 119 125 124
54 55 61 60 120 121 127 126 55
56 62 61 121 122 128 127 56 57
63 62 122 123 129 128 57 58 64
63 123 124 130 129 58 59 65 64
124 125 131 130 132 133 139 138 168
169 175 174 133 134 140 139 169 170
176 175 134 135 141 140 170 171 177
176 135 136 142 141 171 172 178 177
136 137 143 142 172 173 179 178 138
139 145 144 174 175 181 180 139 140
146 145 175 176 182 181 140 141 147
146 176 177 183 182 141 142 148 147
177 178 184 183 142 143 149 148 178
179 185 184 144 145 151 150 180 181
187 186 145 146 152 151 181 182 188
187 146 147 153 152 182 183 189 188
147 148 154 153 183 184 190 189 148
149 155 154 184 185 191 190 150 151
157 156 186 187 193 192 151 152 158
157 187 188 194 193 152 153 159 158
188 189 195 194 153 154 160 159 189
190 196 195 154 155 161 160 190 191
197 196 156 157 163 162 192 193 199
198 157 158 164 163 193 194 200 199
158 159 165 164 194 195 201 200 159
160 166 165 195 196 202 201 160 161
167 166 196 197 203 202 204 205 211
210 240 241 247 246 205 206 212 211
241 242 248 247 206 207 213 212 242
243 249 248 207 208 214 213 243 244
250 249 208 209 215 214 244 245 251
250 210 211 217 216 246 247 253 252
211 212 218 217 247 248 254 253 212
213 219 218 248 249 255 254 213 214
220 219 249 250 256 255 214 215 221
220 250 251 257 256 216 217 223 222
252 253 259 258 217 218 224 223 253
254 260 259 218 219 225 224 254 255
261 260 219 220 226 225 255 256 262
261 220 221 227 226 256 257 263 262
222 223 229 228 258 259 265 264 223
224 230 229 259 260 266 265 224 225
231 230 260 261 267 266 225 226 232
231 261 262 268 267 226 227 233 232
262 263 269 268 228 229 235 234 264
265 271 270 229 230 236 235 265 266
272 271 230 231 237 236 266 267 273
272 231 232 238 237 267 268 274 273
232 233 239 238 268 269 275 274
CELL_TYPES 100
12
12
12
12
12
12
12
12
12
12
12
12
12
12
12
12
12
12
12
12
12
12
12
12
12
12
12
12
12
12
12
12
12
12
12
12
12
12
12
12
12
12
12
12
12
12
12
12
12
12
12
12
12
12
12
12
12
12
12
12
12
12
12
12
12
12
12
12
12
12
12
12
12
12
12
12
12
12
12
12
12
12
12
12
12
12
12
12
12
12
12
12
12
12
12
12
12
12
12
12
CELL_DATA 100
GLOBAL_IDS GLOBAL_IDS_CELLS vtkIdType
0 1 2 3 4 5 6 7 8
9 10 11 12 13 14 15 16 17
18 19 20 21 22 23 24 25 26
27 28 29 30 31 32 33 34 35
36 37 38 39 40 41 42 43 44
45 46 47 48 49 50 51 52 53
54 55 56 57 58 59 60 61 62
63 64 65 66 67 68 69 70 71
72 73 74 75 76 77 78 79 80
81 82 83 84 85 86 87 88 89
90 91 92 93 94 95 96 97 98
99
POINT_DATA 276
GLOBAL_IDS GLOBAL_IDS_POINTS vtkIdType
0 1 2 3 4 5 6 7 8
9 10 11 12 13 14 15 16 17
18 19 20 21 22 23 24 25 26
27 28 29 30 31 32 33 34 35
36 37 38 39 40 41 42 43 44
45 46 47 48 49 50 51 52 53
54 55 56 57 58 59 60 61 62
63 64 65 66 67 68 69 70 71
72 73 74 75 76 77 78 79 80
81 82 83 84 85 86 87 88 89
90 91 92 93 94 95 96 97 98
99 100 101 102 103 104 105 106 107
108 109 110 111 112 113 114 115 116
117 118 119 120 121 122 123 124 125
126 127 128 129 130 131 132 133 134
135 136 137 138 139 140 141 142 143
144 145 146 147 148 149 150 151 152
153 154 155 156 157 158 159 160 161
162 163 164 165 166 167 168 169 170
171 172 173 174 175 176 177 178 179
180 181 182 183 184 185 186 187 188
189 190 191 192 193 194 195 196 197
198 199 200 201 202 203 204 205 206
207 208 209 210 211 212 213 214 215
216 217 218 219 220 221 222 223 224
225 226 227 228 229 230 231 232 233
234 235 236 237 238 239 240 241 242
243 244 245 246 247 248 249 250 251
252 253 254 255 256 257 258 259 260
261 262 263 264 265 266 267 268 269
270 271 272 273 274 275
