# vtk DataFile Version 4.2
pebi grid mesh
ASCII
DATASET UNSTRUCTURED_GRID
POINTS 240 float
0.0000000e+00 2.2782070e-01 0.0000000e+00
0.0000000e+00 0.0000000e+00 0.0000000e+00
0.0000000e+00 4.4528374e-01 0.0000000e+00
0.0000000e+00 8.3000000e-01 0.0000000e+00
0.0000000e+00 6.4257868e-01 0.0000000e+00
0.0000000e+00 1.0000000e+00 0.0000000e+00
1.3167329e-01 2.2643173e-01 0.0000000e+00
1.3258586e-01 4.4344236e-01 0.0000000e+00
1.4282185e-01 0.0000000e+00 0.0000000e+00
1.5899548e-01 6.4372303e-01 0.0000000e+00
1.8061121e-01 1.7226425e-01 0.0000000e+00
1.7000000e-01 8.3000000e-01 0.0000000e+00
1.9624265e-01 3.7198443e-01 0.0000000e+00
2.0107470e-01 5.9843731e-01 0.0000000e+00
1.7000000e-01 1.0000000e+00 0.0000000e+00
2.8265028e-01 5.9276258e-01 0.0000000e+00
2.8715858e-01 3.7414861e-01 0.0000000e+00
3.0544659e-01 1.7222129e-01 0.0000000e+00
3.3977562e-01 7.9485881e-01 0.0000000e+00
3.5557707e-01 4.6646330e-01 0.0000000e+00
3.5674593e-01 0.0000000e+00 0.0000000e+00
3.6871022e-01 2.4346830e-01 0.0000000e+00
3.7057768e-01 6.8309561e-01 0.0000000e+00
4.1263967e-01 1.0000000e+00 0.0000000e+00
4.1682877e-01 8.7189968e-01 0.0000000e+00
4.3857244e-01 2.4443914e-01 0.0000000e+00
4.5389365e-01 0.0000000e+00 0.0000000e+00
4.5503727e-01 4.6736556e-01 0.0000000e+00
4.6884541e-01 6.5571350e-01 0.0000000e+00
5.0499051e-01 1.6451868e-01 0.0000000e+00
5.0770381e-01 5.4112162e-01 0.0000000e+00
5.1262864e-01 3.5511357e-01 0.0000000e+00
5.7537978e-01 7.5308634e-01 0.0000000e+00
5.7813330e-01 7.9849902e-01 0.0000000e+00
6.1930503e-01 1.0000000e+00 0.0000000e+00
6.1970485e-01 8.4201496e-01 0.0000000e+00
6.2194146e-01 3.4945688e-01 0.0000000e+00
6.3388587e-01 1.6725070e-01 0.0000000e+00
6.3524460e-01 5.3885573e-01 0.0000000e+00
6.6976596e-01 0.0000000e+00 0.0000000e+00
6.7819683e-01 2.2060565e-01 0.0000000e+00
6.8557588e-01 6.3802825e-01 0.0000000e+00
6.8924517e-01 4.4013226e-01 0.0000000e+00
7.8455710e-01 2.2155294e-01 0.0000000e+00
7.9023439e-01 4.3391396e-01 0.0000000e+00
7.9385676e-01 6.6323721e-01 0.0000000e+00
7.9888380e-01 8.2206749e-01 0.0000000e+00
8.3000000e-01 0.0000000e+00 0.0000000e+00
8.1004635e-01 8.3356513e-01 0.0000000e+00
8.1256115e-01 1.0000000e+00 0.0000000e+00
8.3000000e-01 1.7000000e-01 0.0000000e+00
8.3925973e-01 3.2428727e-01 0.0000000e+00
8.4362829e-01 4.9716771e-01 0.0000000e+00
1.0000000e+00 4.8740531e-01 0.0000000e+00
1.0000000e+00 6.7248583e-01 0.0000000e+00
1.0000000e+00 0.0000000e+00 0.0000000e+00
1.0000000e+00 1.7000000e-01 0.0000000e+00
1.0000000e+00 3.2175483e-01 0.0000000e+00
1.0000000e+00 8.2136716e-01 0.0000000e+00
1.0000000e+00 1.0000000e+00 0.0000000e+00
0.0000000e+00 2.2782070e-01 1.0000000e-01
0.0000000e+00 0.0000000e+00 1.0000000e-01
0.0000000e+00 4.4528374e-01 1.0000000e-01
0.0000000e+00 8.3000000e-01 1.0000000e-01
0.0000000e+00 6.4257868e-01 1.0000000e-01
0.0000000e+00 1.0000000e+00 1.0000000e-01
1.3167329e-01 2.2643173e-01 1.0000000e-01
1.3258586e-01 4.4344236e-01 1.0000000e-01
1.4282185e-01 0.0000000e+00 1.0000000e-01
1.5899548e-01 6.4372303e-01 1.0000000e-01
1.8061121e-01 1.7226425e-01 1.0000000e-01
1.7000000e-01 8.3000000e-01 1.0000000e-01
1.9624265e-01 3.7198443e-01 1.0000000e-01
2.0107470e-01 5.9843731e-01 1.0000000e-01
1.7000000e-01 1.0000000e+00 1.0000000e-01
2.8265028e-01 5.9276258e-01 1.0000000e-01
2.8715858e-01 3.7414861e-01 1.0000000e-01
3.0544659e-01 1.7222129e-01 1.0000000e-01
3.3977562e-01 7.9485881e-01 1.0000000e-01
3.5557707e-01 4.6646330e-01 1.0000000e-01
3.5674593e-01 0.0000000e+00 1.0000000e-01
3.6871022e-01 2.4346830e-01 1.0000000e-01
3.7057768e-01 6.8309561e-01 1.0000000e-01
4.1263967e-01 1.0000000e+00 1.0000000e-01
4.1682877e-01 8.7189968e-01 1.0000000e-01
4.3857244e-01 2.4443914e-01 1.0000000e-01
4.5389365e-01 0.0000000e+00 1.0000000e-01
4.5503727e-01 4.6736556e-01 1.0000000e-01
4.6884541e-01 6.5571350e-01 1.0000000e-01
5.0499051e-01 1.6451868e-01 1.0000000e-01
5.0770381e-01 5.4112162e-01 1.0000000e-01
5.1262864e-01 3.5511357e-01 1.0000000e-01
5.7537978e-01 7.5308634e-01 1.0000000e-01
5.7813330e-01 7.9849902e-01 1.0000000e-01
6.1930503e-01 1.0000000e+00 1.0000000e-01
6.1970485e-01 8.4201496e-01 1.0000000e-01
6.2194146e-01 3.4945688e-01 1.0000000e-01
6.3388587e-01 1.6725070e-01 1.0000000e-01
6.3524460e-01 5.3885573e-01 1.0000000e-01
6.6976596e-01 0.0000000e+00 1.0000000e-01
6.7819683e-01 2.2060565e-01 1.0000000e-01
6.8557588e-01 6.3802825e-01 1.0000000e-01
6.8924517e-01 4.4013226e-01 1.0000000e-01
7.8455710e-01 2.2155294e-01 1.0000000e-01
7.9023439e-01 4.3391396e-01 1.0000000e-01
7.9385676e-01 6.6323721e-01 1.0000000e-01
7.9888380e-01 8.2206749e-01 1.0000000e-01
8.3000000e-01 0.0000000e+00 1.0000000e-01
8.1004635e-01 8.3356513e-01 1.0000000e-01
8.1256115e-01 1.0000000e+00 1.0000000e-01
8.3000000e-01 1.7000000e-01 1.0000000e-01
8.3925973e-01 3.2428727e-01 1.0000000e-01
8.4362829e-01 4.9716771e-01 1.0000000e-01
1.0000000e+00 4.8740531e-01 1.0000000e-01
1.0000000e+00 6.7248583e-01 1.0000000e-01
1.0000000e+00 0.0000000e+00 1.0000000e-01
1.0000000e+00 1.7000000e-01 1.0000000e-01
1.0000000e+00 3.2175483e-01 1.0000000e-01
1.0000000e+00 8.2136716e-01 1.0000000e-01
1.0000000e+00 1.0000000e+00 1.0000000e-01
0.0000000e+00 2.2782070e-01 2.0000000e-01
0.0000000e+00 0.0000000e+00 2.0000000e-01
0.0000000e+00 4.4528374e-01 2.0000000e-01
0.0000000e+00 8.3000000e-01 2.0000000e-01
0.0000000e+00 6.4257868e-01 2.0000000e-01
0.0000000e+00 1.0000000e+00 2.0000000e-01
1.3167329e-01 2.2643173e-01 2.0000000e-01
1.3258586e-01 4.4344236e-01 2.0000000e-01
1.4282185e-01 0.0000000e+00 2.0000000e-01
1.5899548e-01 6.4372303e-01 2.0000000e-01
1.8061121e-01 1.7226425e-01 2.0000000e-01
1.7000000e-01 8.3000000e-01 2.0000000e-01
1.9624265e-01 3.7198443e-01 2.0000000e-01
2.0107470e-01 5.9843731e-01 2.0000000e-01
1.7000000e-01 1.0000000e+00 2.0000000e-01
2.8265028e-01 5.9276258e-01 2.0000000e-01
2.8715858e-01 3.7414861e-01 2.0000000e-01
3.0544659e-01 1.7222129e-01 2.0000000e-01
3.3977562e-01 7.9485881e-01 2.0000000e-01
3.5557707e-01 4.6646330e-01 2.0000000e-01
3.5674593e-01 0.0000000e+00 2.0000000e-01
3.6871022e-01 2.4346830e-01 2.0000000e-01
3.7057768e-01 6.8309561e-01 2.0000000e-01
4.1263967e-01 1.0000000e+00 2.0000000e-01
4.1682877e-01 8.7189968e-01 2.0000000e-01
4.3857244e-01 2.4443914e-01 2.0000000e-01
4.5389365e-01 0.0000000e+00 2.0000000e-01
4.5503727e-01 4.6736556e-01 2.0000000e-01
4.6884541e-01 6.5571350e-01 2.0000000e-01
5.0499051e-01 1.6451868e-01 2.0000000e-01
5.0770381e-01 5.4112162e-01 2.0000000e-01
5.1262864e-01 3.5511357e-01 2.0000000e-01
5.7537978e-01 7.5308634e-01 2.0000000e-01
5.7813330e-01 7.9849902e-01 2.0000000e-01
6.1930503e-01 1.0000000e+00 2.0000000e-01
6.1970485e-01 8.4201496e-01 2.0000000e-01
6.2194146e-01 3.4945688e-01 2.0000000e-01
6.3388587e-01 1.6725070e-01 2.0000000e-01
6.3524460e-01 5.3885573e-01 2.0000000e-01
6.6976596e-01 0.0000000e+00 2.0000000e-01
6.7819683e-01 2.2060565e-01 2.0000000e-01
6.8557588e-01 6.3802825e-01 2.0000000e-01
6.8924517e-01 4.4013226e-01 2.0000000e-01
7.8455710e-01 2.2155294e-01 2.0000000e-01
7.9023439e-01 4.3391396e-01 2.0000000e-01
7.9385676e-01 6.6323721e-01 2.0000000e-01
7.9888380e-01 8.2206749e-01 2.0000000e-01
8.3000000e-01 0.0000000e+00 2.0000000e-01
8.1004635e-01 8.3356513e-01 2.0000000e-01
8.1256115e-01 1.0000000e+00 2.0000000e-01
8.3000000e-01 1.7000000e-01 2.0000000e-01
8.3925973e-01 3.2428727e-01 2.0000000e-01
8.4362829e-01 4.9716771e-01 2.0000000e-01
1.0000000e+00 4.8740531e-01 2.0000000e-01
1.0000000e+00 6.7248583e-01 2.0000000e-01
1.0000000e+00 0.0000000e+00 2.0000000e-01
1.0000000e+00 1.7000000e-01 2.0000000e-01
1.0000000e+00 3.2175483e-01 2.0000000e-01
1.0000000e+00 8.2136716e-01 2.0000000e-01
1.0000000e+00 1.0000000e+00 2.0000000e-01
0.0000000e+00 2.2782070e-01 3.0000000e-01
0.0000000e+00 0.0000000e+00 3.0000000e-01
0.0000000e+00 4.4528374e-01 3.0000000e-01
0.0000000e+00 8.3000000e-01 3.0000000e-01
0.0000000e+00 6.4257868e-01 3.0000000e-01
0.0000000e+00 1.0000000e+00 3.0000000e-01
1.3167329e-01 2.2643173e-01 3.0000000e-01
1.3258586e-01 4.4344236e-01 3.0000000e-01
1.4282185e-01 0.0000000e+00 3.0000000e-01
1.5899548e-01 6.4372303e-01 3.0000000e-01
1.8061121e-01 1.7226425e-01 3.0000000e-01
1.7000000e-01 8.3000000e-01 3.0000000e-01
1.9624265e-01 3.7198443e-01 3.0000000e-01
2.0107470e-01 5.9843731e-01 3.0000000e-01
1.7000000e-01 1.0000000e+00 3.0000000e-01
2.8265028e-01 5.9276258e-01 3.0000000e-01
2.8715858e-01 3.7414861e-01 3.0000000e-01
3.0544659e-01 1.7222129e-01 3.0000000e-01
3.3977562e-01 7.9485881e-01 3.0000000e-01
3.5557707e-01 4.6646330e-01 3.0000000e-01
3.5674593e-01 0.0000000e+00 3.0000000e-01
3.6871022e-01 2.4346830e-01 3.0000000e-01
3.7057768e-01 6.8309561e-01 3.0000000e-01
4.1263967e-01 1.0000000e+00 3.0000000e-01
4.1682877e-01 8.7189968e-01 3.0000000e-01
4.3857244e-01 2.4443914e-01 3.0000000e-01
4.5389365e-01 0.0000000e+00 3.0000000e-01
4.5503727e-01 4.6736556e-01 3.0000000e-01
4.6884541e-01 6.5571350e-01 3.0000000e-01
5.0499051e-01 1.6451868e-01 3.0000000e-01
5.0770381e-01 5.4112162e-01 3.0000000e-01
5.1262864e-01 3.5511357e-01 3.0000000e-01
5.7537978e-01 7.5308634e-01 3.0000000e-01
5.7813330e-01 7.9849902e-01 3.0000000e-01
6.1930503e-01 1.0000000e+00 3.0000000e-01
6.1970485e-01 8.4201496e-01 3.0000000e-01
6.2194146e-01 3.4945688e-01 3.0000000e-01
6.3388587e-01 1.6725070e-01 3.0000000e-01
6.3524460e-01 5.3885573e-01 3.0000000e-01
6.6976596e-01 0.0000000e+00 3.0000000e-01
6.7819683e-01 2.2060565e-01 3.0000000e-01
6.8557588e-01 6.3802825e-01 3.0000000e-01
6.8924517e-01 4.4013226e-01 3.0000000e-01
7.8455710e-01 2.2155294e-01 3.0000000e-01
7.9023439e-01 4.3391396e-01 3.0000000e-01
7.9385676e-01 6.6323721e-01 3.0000000e-01
7.9888380e-01 8.2206749e-01 3.0000000e-01
8.3000000e-01 0.0000000e+00 3.0000000e-01
8.1004635e-01 8.3356513e-01 3.0000000e-01
8.1256115e-01 1.0000000e+00 3.0000000e-01
8.3000000e-01 1.7000000e-01 3.0000000e-01
8.3925973e-01 3.2428727e-01 3.0000000e-01
8.4362829e-01 4.9716771e-01 3.0000000e-01
1.0000000e+00 4.8740531e-01 3.0000000e-01
1.0000000e+00 6.7248583e-01 3.0000000e-01
1.0000000e+00 0.0000000e+00 3.0000000e-01
1.0000000e+00 1.7000000e-01 3.0000000e-01
1.0000000e+00 3.2175483e-01 3.0000000e-01
1.0000000e+00 8.2136716e-01 3.0000000e-01
1.0000000e+00 1.0000000e+00 3.0000000e-01
CELLS 90 1026
8
47
55
56
50
107
115
116
110
8
26
39
37
29
86
99
97
89
8
52
53
54
45
112
113
114
105
8
8
20
17
10
68
80
77
70
8
48
58
59
49
108
118
119
109
8
4
9
11
3
64
69
71
63
8
3
11
14
5
63
71
74
65
10
43
50
56
57
51
103
110
116
117
111
10
51
57
53
52
44
111
117
113
112
104
10
45
54
58
48
46
105
114
118
108
106
10
1
8
10
6
0
61
68
70
66
60
10
30
38
41
32
28
90
98
101
92
88
10
35
46
48
49
34
95
106
108
109
94
10
0
6
12
7
2
60
66
72
67
62
10
24
33
35
34
23
84
93
95
94
83
10
2
7
13
9
4
62
67
73
69
64
10
11
18
24
23
14
71
78
84
83
74
12
39
47
50
43
40
37
99
107
110
103
100
97
12
20
26
29
25
21
17
80
86
89
85
81
77
12
40
43
51
44
42
36
100
103
111
104
102
96
12
25
29
37
40
36
31
85
89
97
100
96
91
12
38
42
44
52
45
41
98
102
104
112
105
101
12
6
10
17
21
16
12
66
70
77
81
76
72
12
21
25
31
27
19
16
81
85
91
87
79
76
12
31
36
42
38
30
27
91
96
102
98
90
87
12
41
45
46
35
33
32
101
105
106
95
93
92
12
7
12
16
19
15
13
67
72
76
79
75
73
12
19
27
30
28
22
15
79
87
90
88
82
75
12
22
28
32
33
24
18
82
88
92
93
84
78
12
9
13
15
22
18
11
69
73
75
82
78
71
8
107
115
116
110
167
175
176
170
8
86
99
97
89
146
159
157
149
8
112
113
114
105
172
173
174
165
8
68
80
77
70
128
140
137
130
8
108
118
119
109
168
178
179
169
8
64
69
71
63
124
129
131
123
8
63
71
74
65
123
131
134
125
10
103
110
116
117
111
163
170
176
177
171
10
111
117
113
112
104
171
177
173
172
164
10
105
114
118
108
106
165
174
178
168
166
10
61
68
70
66
60
121
128
130
126
120
10
90
98
101
92
88
150
158
161
152
148
10
95
106
108
109
94
155
166
168
169
154
10
60
66
72
67
62
120
126
132
127
122
10
84
93
95
94
83
144
153
155
154
143
10
62
67
73
69
64
122
127
133
129
124
10
71
78
84
83
74
131
138
144
143
134
12
99
107
110
103
100
97
159
167
170
163
160
157
12
80
86
89
85
81
77
140
146
149
145
141
137
12
100
103
111
104
102
96
160
163
171
164
162
156
12
85
89
97
100
96
91
145
149
157
160
156
151
12
98
102
104
112
105
101
158
162
164
172
165
161
12
66
70
77
81
76
72
126
130
137
141
136
132
12
81
85
91
87
79
76
141
145
151
147
139
136
12
91
96
102
98
90
87
151
156
162
158
150
147
12
101
105
106
95
93
92
161
165
166
155
153
152
12
67
72
76
79
75
73
127
132
136
139
135
133
12
79
87
90
88
82
75
139
147
150
148
142
135
12
82
88
92
93
84
78
142
148
152
153
144
138
12
69
73
75
82
78
71
129
133
135
142
138
131
8
167
175
176
170
227
235
236
230
8
146
159
157
149
206
219
217
209
8
172
173
174
165
232
233
234
225
8
128
140
137
130
188
200
197
190
8
168
178
179
169
228
238
239
229
8
124
129
131
123
184
189
191
183
8
123
131
134
125
183
191
194
185
10
163
170
176
177
171
223
230
236
237
231
10
171
177
173
172
164
231
237
233
232
224
10
165
174
178
168
166
225
234
238
228
226
10
121
128
130
126
120
181
188
190
186
180
10
150
158
161
152
148
210
218
221
212
208
10
155
166
168
169
154
215
226
228
229
214
10
120
126
132
127
122
180
186
192
187
182
10
144
153
155
154
143
204
213
215
214
203
10
122
127
133
129
124
182
187
193
189
184
10
131
138
144
143
134
191
198
204
203
194
12
159
167
170
163
160
157
219
227
230
223
220
217
12
140
146
149
145
141
137
200
206
209
205
201
197
12
160
163
171
164
162
156
220
223
231
224
222
216
12
145
149
157
160
156
151
205
209
217
220
216
211
12
158
162
164
172
165
161
218
222
224
232
225
221
12
126
130
137
141
136
132
186
190
197
201
196
192
12
141
145
151
147
139
136
201
205
211
207
199
196
12
151
156
162
158
150
147
211
216
222
218
210
207
12
161
165
166
155
153
152
221
225
226
215
213
212
12
127
132
136
139
135
133
187
192
196
199
195
193
12
139
147
150
148
142
135
199
207
210
208
202
195
12
142
148
152
153
144
138
202
208
212
213
204
198
12
129
133
135
142
138
131
189
193
195
202
198
191
CELL_TYPES 90
12
12
12
12
12
12
12
15
15
15
15
15
15
15
15
15
15
16
16
16
16
16
16
16
16
16
16
16
16
16
12
12
12
12
12
12
12
15
15
15
15
15
15
15
15
15
15
16
16
16
16
16
16
16
16
16
16
16
16
16
12
12
12
12
12
12
12
15
15
15
15
15
15
15
15
15
15
16
16
16
16
16
16
16
16
16
16
16
16
16
CELL_DATA 90
SCALARS attribute float 1
LOOKUP_TABLE default
0 0 0 0 0 0
0 1 1 1 1 1
1 1 1 1 1 2
2 2 2 2 2 2
2 2 2 2 2 2
0 0 0 0 0 0
0 1 1 1 1 1
1 1 1 1 1 2
2 2 2 2 2 2
2 2 2 2 2 2
0 0 0 0 0 0
0 1 1 1 1 1
1 1 1 1 1 2
2 2 2 2 2 2
2 2 2 2 2 2

