<VTKFile type="ImageData" version="1.0" byte_order="LittleEndian">
  <ImageData WholeExtent="2 3 2 3 0 3" Origin="0 0 0" Spacing="1 1 1">
  <Piece Extent="2 3 2 3 0 3">
    <PointData>
    </PointData>
    <CellData>
      <DataArray type="Int32" Name="attribute" format="ascii">
        3 3 9
      </DataArray>
    </CellData>
  </Piece>
  </ImageData>
</VTKFile>
