<VTKFile type="UnstructuredGrid" version="1.0" byte_order="LittleEndian" header_type="UInt64">
  <UnstructuredGrid>
    <Piece NumberOfPoints="22227" NumberOfCells="18553">
      <PointData>
      </PointData>
      <CellData Vectors="PERM">
        <DataArray type="Float32" Name="PERM" NumberOfComponents="3" format="ascii" RangeMin="1.1445498797465002e-13" RangeMax="9.794436650946915e-12">
          2.0044412635776554e-13 2.0044412635776554e-13 2.0044412974589733e-14 7.94966740005898e-13 7.94966740005898e-13 7.949667129008436e-14
          2.859116751945806e-13 2.859116751945806e-13 2.85911668418317e-14 3.220330631933249e-13 3.220330631933249e-13 3.2203308352211565e-14
          5.986676540788161e-13 5.986676540788161e-13 5.986676405262889e-14 5.806069600794439e-13 5.806069600794439e-13 5.806070007370254e-14
          4.867505595633481e-13 4.867505595633481e-13 4.867505663396117e-14 7.203553075221802e-13 7.203553075221802e-13 7.203553075221802e-14
          1.1803602800036783e-12 1.1803602800036783e-12 1.180360334213787e-13 2.3056502453794314e-12 2.3056502453794314e-12 2.3056502453794314e-13
          1.049000730030114e-12 1.049000730030114e-12 1.0490007706876955e-13 2.806809960235329e-13 2.806809960235329e-13 2.8068098585913755e-14
          3.4236369707112135e-13 3.4236369707112135e-13 3.423637038473849e-14 3.7019492289333544e-13 3.7019492289333544e-13 3.701949364458626e-14
          4.3444363232759964e-13 4.3444363232759964e-13 4.344436391038632e-14 5.321490318711819e-13 5.321490318711819e-13 5.321490589762362e-14
          3.7029361239608594e-13 3.7029361239608594e-13 3.702936327248767e-14 3.540093836563313e-13 3.540093836563313e-13 3.5400939043259486e-14
          5.127066306231942e-13 5.127066306231942e-13 5.127066712807757e-14 1.0539353677979646e-12 1.0539353677979646e-12 1.0539353813504918e-13
          1.5690106549073879e-12 1.5690106549073879e-12 1.5690106278023336e-13 2.9104368654692125e-12 2.9104368654692125e-12 2.910436919679321e-13
          1.571379311393617e-12 1.571379311393617e-12 1.5713793384986713e-13 6.984456416003759e-13 6.984456416003759e-13 6.984456144953216e-14
          7.699975639735568e-13 7.699975639735568e-13 7.699975368685025e-14 4.283247205267432e-13 4.283247205267432e-13 4.2832470697421604e-14
          2.0861585028897345e-12 2.0861585028897345e-12 2.0861585299947888e-13 1.1334814380495328e-12 1.1334814380495328e-12 1.1334813973919514e-13
          1.0555145082621897e-12 1.0555145082621897e-12 1.0555144540520811e-13 1.9985196223620827e-13 1.9985196223620827e-13 1.9985196901247185e-14
          5.753762809083962e-13 5.753762809083962e-13 5.75376267355869e-14 5.412287371747704e-13 5.412287371747704e-13 5.4122874395103396e-14
          4.0503332025126904e-13 4.0503332025126904e-13 4.050333338037962e-14 5.194177336506622e-13 5.194177336506622e-13 5.194177472031894e-14
          3.552924014021963e-13 3.552924014021963e-13 3.55292374297142e-14 4.370096407142754e-13 4.370096407142754e-13 4.370096407142754e-14
          7.355539246266252e-13 7.355539246266252e-13 7.355539246266252e-14 1.3013570256126261e-12 1.3013570256126261e-12 1.301357025612626e-13
          2.462965812202733e-12 2.462965812202733e-12 2.462965812202733e-13 2.0775722722049528e-12 2.0775722722049528e-12 2.0775721908897898e-13
          6.228473140891533e-13 6.228473140891533e-13 6.228473140891533e-14 2.020231990593549e-13 2.020231990593549e-13 2.020232024474867e-14
          4.2052800586396544e-13 4.2052800586396544e-13 4.2052800586396544e-14 5.692573691075398e-13 5.692573691075398e-13 5.692573691075398e-14
          4.915864807233938e-13 4.915864807233938e-13 4.9158648072339384e-14 9.865285671706303e-13 9.865285671706303e-13 9.865284994079945e-14
          4.703676684258973e-13 4.703676684258973e-13 4.703676616496337e-14 5.354058667771111e-13 5.354058667771111e-13 5.35405900658429e-14
          9.352085078573324e-13 9.352085078573324e-13 9.352085349623868e-14 2.394868157951091e-12 2.394868157951091e-12 2.394868157951091e-13
          3.1352578953175447e-12 3.1352578953175447e-12 3.1352578953175447e-13 1.896471911802533e-12 1.896471911802533e-12 1.8964718033823158e-13
          1.4912411583356544e-12 1.4912411583356544e-12 1.4912410770204915e-13 4.960276438724376e-13 4.960276438724376e-13 4.960276438724376e-14
          3.8075499784323563e-13 3.8075499784323563e-13 3.8075499784323563e-14 6.623242536016316e-13 6.623242536016316e-13 6.62324199391523e-14
          1.0443621878755693e-12 1.0443621878755693e-12 1.0443622149806236e-13 5.13200105242001e-13 5.13200105242001e-13 5.1320011879452815e-14
          3.3861338754638537e-13 3.3861338754638537e-13 3.386133807701218e-14 3.452257739660486e-13 3.452257739660486e-13 3.4522576041352143e-14
          7.640760311782013e-13 7.640760311782013e-13 7.640760311782013e-14 1.6413520933025727e-12 1.6413520933025727e-12 1.641352120407627e-13
          2.1049099963033058e-12 2.1049099963033058e-12 2.1049100776184687e-13 1.5065383836276869e-12 1.5065383836276869e-12 1.5065383565226326e-13
          4.761904846134479e-13 4.761904846134479e-13 4.7619050494223866e-14 2.5038245131739356e-13 2.5038245131739356e-13 2.5038244792926177e-14
          4.4993834504535035e-13 4.4993834504535035e-13 4.4993834504535035e-14 7.17690609632754e-13 7.17690609632754e-13 7.17690609632754e-14
          2.321243512074661e-13 2.321243512074661e-13 2.3212436475999326e-14 4.580311282163796e-13 4.580311282163796e-13 4.580311011113253e-14
          2.2807797317447864e-13 2.2807797317447864e-13 2.2807796978634685e-14 3.0387367969120227e-13 3.0387367969120227e-13 3.038736796912023e-14
          6.347890420775604e-13 6.347890420775604e-13 6.347890556300875e-14 1.1184801999505889e-12 1.1184801999505889e-12 1.1184801728455346e-13
          2.4551690975399554e-12 2.4551690975399554e-12 2.455169043329847e-13 2.726671752967258e-12 2.726671752967258e-12 2.7266716987571493e-13
          9.043177990296358e-13 9.043177990296358e-13 9.043178532397445e-14 2.9558351751467205e-13 2.9558351751467205e-13 2.955835310671992e-14
          3.9773008020729805e-13 3.9773008020729805e-13 3.9773008020729805e-14 3.708857765176432e-13 3.708857765176432e-13 3.708857765176432e-14
          5.460646583348161e-13 5.460646583348161e-13 5.460646583348161e-14 3.8539353999778037e-13 3.8539353999778037e-13 3.853935535503075e-14
          3.761164827937452e-13 3.761164827937452e-13 3.7611647601748163e-14 3.325931652482794e-13 3.325931652482794e-13 3.325931449194887e-14
          9.888971152366421e-13 9.888971152366421e-13 9.888971423416965e-14 2.280483744551698e-12 2.280483744551698e-12 2.280483744551698e-13
          3.3786333106244903e-12 3.3786333106244903e-12 3.378633093784056e-13 2.091093140657585e-12 2.091093140657585e-12 2.091093140657585e-13
          1.5772021275811676e-12 1.5772021275811676e-12 1.5772021817912762e-13 2.0103627692679565e-13 2.0103627692679565e-13 2.0103627353866386e-14
          3.486800149825331e-13 3.486800149825331e-13 3.4867999465374236e-14 4.4460894926649785e-13 4.4460894926649785e-13 4.4460894926649785e-14
          5.345176341473024e-13 5.345176341473024e-13 5.3451766802862025e-14 4.2941033216205293e-13 4.2941033216205293e-13 4.2941033216205293e-14
          3.6526031223053923e-13 3.6526031223053923e-13 3.652603257830664e-14 2.2501851727405042e-13 2.2501851727405042e-13 2.250185206621822e-14
          2.516654419582043e-13 2.516654419582043e-13 2.5166544873446786e-14 5.832716579688701e-13 5.832716579688701e-13 5.832716986264516e-14
          5.714285923781592e-13 5.714285923781592e-13 5.714286194832136e-14 5.700468851295437e-13 5.700468851295437e-13 5.700468715770166e-14
          5.542561310085958e-13 5.542561310085958e-13 5.542561106798051e-14 8.655317131414653e-13 8.655317131414653e-13 8.655317402465196e-14
          2.045990763963057e-12 2.045990763963057e-12 2.0459907368580027e-13 1.636318793137026e-12 1.636318793137026e-12 1.6363188473471346e-13
          9.056995062782514e-13 9.056995062782514e-13 9.056995333833057e-14 7.501604047145671e-13 7.501604047145671e-13 7.501604318196214e-14
          3.15815461889718e-13 3.15815461889718e-13 3.158154551134544e-14 7.304219078532737e-13 7.304219078532737e-13 7.304219214058008e-14
          4.940537996073191e-13 4.940537996073191e-13 4.9405381993610983e-14 7.021959511251119e-13 7.021959511251119e-13 7.021959375725847e-14
          3.7878115357811715e-13 3.7878115357811715e-13 3.787811739069079e-14 4.804342687569907e-13 4.804342687569907e-13 4.8043427553325427e-14
          2.1949174248969694e-13 2.1949174248969694e-13 2.1949174926596052e-14 3.829262482189094e-13 3.829262482189094e-13 3.829262482189094e-14
          8.81026425859216e-13 8.81026425859216e-13 8.810264123066888e-14 1.5869726322989552e-12 1.5869726322989552e-12 1.586972605193901e-13
          2.20784610212299e-12 2.20784610212299e-12 2.2078461292280444e-13 1.1784851523463646e-12 1.1784851523463646e-12 1.1784850710312017e-13
          7.91216430481162e-13 7.91216430481162e-13 7.912163898235805e-14 3.954601674339281e-13 3.954601674339281e-13 3.954601674339281e-14
          6.54428822331049e-13 6.54428822331049e-13 6.544288358835762e-14 4.926720923587036e-13 4.926720923587036e-13 4.926721059112307e-14
          4.926720923587036e-13 4.926720923587036e-13 4.926721059112307e-14 4.026647179751486e-13 4.026647179751486e-13 4.0266469087009427e-14
          1.1985196906108553e-12 1.1985196906108553e-12 1.1985196364007467e-13 1.972366280716953e-12 1.972366280716953e-12 1.9723662265068442e-13
          2.4568467919816595e-12 2.4568467919816595e-12 2.456846846191768e-13 3.28448076028498e-12 3.28448076028498e-12 3.2844807060748715e-13
          2.7763139009984172e-12 2.7763139009984172e-12 2.776314063628743e-13 1.0607451332231288e-12 1.0607451332231288e-12 1.0607451874332374e-13
          1.482358750722404e-13 1.482358750722404e-13 1.4823588184850398e-14 3.0051815528252257e-13 3.0051815528252257e-13 3.005181417299954e-14
          6.113990065094443e-13 6.113990065094443e-13 6.113989522993357e-14 4.86454518160151e-13 4.86454518160151e-13 4.864545113838874e-14
          5.139896754741136e-13 5.139896754741136e-13 5.139896551453228e-14 5.942265451398809e-13 5.942265451398809e-13 5.942265451398809e-14
          3.65951165854847e-13 3.65951165854847e-13 3.65951165854847e-14 2.4347396928442455e-13 2.4347396928442455e-13 2.4347397944881992e-14
          6.735751279657309e-13 6.735751279657309e-13 6.735751686233124e-14 7.433506392894029e-13 7.433506392894029e-13 7.433506257368758e-14
          6.994325366278809e-13 6.994325366278809e-13 6.994325095228265e-14 4.4085863974176187e-13 4.4085863974176187e-13 4.408586261892347e-14
          5.05699486192529e-13 5.05699486192529e-13 5.0569950652131976e-14 5.965951474160014e-13 5.965951474160014e-13 5.965951203109471e-14
          3.254873042098094e-13 3.254873042098094e-13 3.254873177623366e-14 3.725635522745102e-13 3.725635522745102e-13 3.7256354549824663e-14
          1.630298652154083e-12 1.630298652154083e-12 1.6302985437338657e-13 2.834443617316662e-12 2.834443617316662e-12 2.8344438341570966e-13
          1.112657275342821e-12 1.112657275342821e-12 1.1126573295529296e-13 4.767826216299509e-13 4.767826216299509e-13 4.767826487350052e-14
          3.500616951260943e-13 3.500616951260943e-13 3.5006170867862146e-14 4.944485576183211e-13 4.944485576183211e-13 4.944485711708482e-14
          8.955341893393531e-13 8.955341893393531e-13 8.955341893393531e-14 2.5423145034488004e-13 2.5423145034488004e-13 2.5423145034488004e-14
          3.6526031223053923e-13 3.6526031223053923e-13 3.652603257830664e-14 6.125832805424503e-13 6.125832805424503e-13 6.125833076475046e-14
          5.635332153176853e-13 5.635332153176853e-13 5.63533188212631e-14 1.095484854630839e-13 1.095484854630839e-13 1.0954848207495212e-14
          3.8598570411933764e-13 3.8598570411933764e-13 3.8598569734307406e-14 6.189982879566125e-13 6.189982879566125e-13 6.189982608515582e-14
          1.4900567758824312e-12 1.4900567758824312e-12 1.4900568571975942e-13 2.3962498651997066e-12 2.3962498651997066e-12 2.3962497025693807e-13
          1.0113003099873619e-12 1.0113003099873619e-12 1.0113002828823076e-13 6.16629685680492e-13 6.16629685680492e-13 6.16629685680492e-14
          5.257340244570197e-13 5.257340244570197e-13 5.257340380095468e-14 4.421416303825726e-13 4.421416303825726e-13 4.4214164393509975e-14
          5.219837149322837e-13 5.219837149322837e-13 5.219837488136016e-14 6.420922821215314e-13 6.420922821215314e-13 6.420923092265857e-14
          5.520849077379764e-13 5.520849077379764e-13 5.520848941854492e-14 1.067554898648293e-12 1.067554898648293e-12 1.0675549257533473e-13
          1.8780164055820503e-12 1.8780164055820503e-12 1.878016378476996e-13 2.2614360471046036e-12 2.2614360471046036e-12 2.2614360742096579e-13
          1.6410561061094842e-12 1.6410561061094842e-12 1.641055997689267e-13 2.9501110755669746e-12 2.9501110755669746e-12 2.950111129777083e-13
          6.726868953359222e-13 6.726868953359222e-13 6.726869359935037e-14 4.2171233410708e-13 4.2171233410708e-13 4.217123273308164e-14
          2.668640590626492e-13 2.668640590626492e-13 2.6686406583891278e-14 6.151493160341803e-13 6.151493160341803e-13 6.151492753765989e-14
          3.781890165616142e-13 3.781890165616142e-13 3.7818899623282345e-14 5.605724218149533e-13 5.605724218149533e-13 5.605724353674804e-14
          5.213915779157807e-13 5.213915779157807e-13 5.2139157113951715e-14 4.819146384033024e-13 4.819146384033024e-13 4.8191465195582955e-14
          2.8837899407850587e-13 2.8837899407850587e-13 2.8837897374971513e-14 6.576857114470869e-13 6.576857114470869e-13 6.576857114470869e-14
          4.703676684258973e-13 4.703676684258973e-13 4.703676616496337e-14 7.236121424281095e-13 7.236121424281095e-13 7.236121830856909e-14
          5.76264513538205e-13 5.76264513538205e-13 5.762644999856778e-14 7.27954643179457e-13 7.27954643179457e-13 7.279546160744027e-14
          3.171971420332792e-13 3.171971420332792e-13 3.171971352570156e-14 3.5085123825315256e-13 3.5085123825315256e-13 3.5085124502941614e-14
          6.54428822331049e-13 6.54428822331049e-13 6.544288358835762e-14 6.148532204208745e-13 6.148532204208745e-13 6.148532204208745e-14
          4.423390364931279e-13 4.423390364931279e-13 4.423390364931279e-14 1.1376264513751622e-12 1.1376264513751622e-12 1.1376265055852708e-13
          1.316753021722572e-12 1.316753021722572e-12 1.316753103037735e-13 1.777152752215072e-12 1.777152752215072e-12 1.7771527793201264e-13
          1.1480879181374748e-12 1.1480879181374748e-12 1.1480878368223119e-13 4.245744110020072e-13 4.245744110020072e-13 4.245744177782708e-14
          6.966691763407584e-13 6.966691763407584e-13 6.966691492357041e-14 8.275351974854073e-13 8.275351974854073e-13 8.275351974854073e-14
          6.984456416003759e-13 6.984456416003759e-13 6.984456144953216e-14 2.981495259013478e-13 2.981495259013478e-13 2.981495326776114e-14
          7.297311084390745e-13 7.297311084390745e-13 7.297310813340202e-14 8.621762158378399e-13 8.621762158378399e-13 8.621762022853127e-14
          4.648408936415438e-13 4.648408936415438e-13 4.6484087331275306e-14 1.0895633489405379e-13 1.0895633489405379e-13 1.089563298118561e-14
          4.860597059390404e-13 4.860597059390404e-13 4.860597262678311e-14 4.934616625908161e-13 4.934616625908161e-13 4.934616422620254e-14
          1.44090804825997e-12 1.44090804825997e-12 1.4409080753650244e-13 1.98233421865035e-12 1.98233421865035e-12 1.9823341102301328e-13
          1.2402664615815406e-12 1.2402664615815406e-12 1.240266570001758e-13 1.1240069205248338e-12 1.1240069205248338e-12 1.1240069611824152e-13
          8.621762158378399e-13 8.621762158378399e-13 8.621762022853127e-14 3.5963484794343525e-13 3.5963484794343525e-13 3.596348411671717e-14
          6.192943835699183e-13 6.192943835699183e-13 6.192943835699183e-14 5.660005342016106e-13 5.660005342016106e-13 5.66000527425347e-14
          6.69232681424492e-13 6.69232681424492e-13 6.692326678719648e-14 1.173945272589516e-12 1.173945272589516e-12 1.1739452454844618e-13
          2.5469528829730192e-12 2.5469528829730192e-12 2.5469529913932365e-13 1.4494942789447518e-12 1.4494942789447518e-12 1.4494942789447518e-13
          2.0348384435764366e-12 2.0348384435764366e-12 2.0348384977865452e-13 3.175425634244222e-12 3.175425634244222e-12 3.175425688454331e-13
          1.348729396395687e-12 1.348729396395687e-12 1.3487293421855784e-13 8.063163309778021e-13 8.063163309778021e-13 8.063163445303292e-14
          5.893905697697266e-13 5.893905697697266e-13 5.893905968747809e-14 5.290895759707537e-13 5.290895759707537e-13 5.290895759707537e-14
          4.092771043948118e-13 4.092771043948118e-13 4.092771043948118e-14 5.532691817709823e-13 5.532691817709823e-13 5.5326921565230017e-14
          7.235134800304133e-13 7.235134800304133e-13 7.23513452925359e-14 2.789045307639154e-13 2.789045307639154e-13 2.7890452059952005e-14
          3.208487620552647e-13 3.208487620552647e-13 3.208487620552647e-14 6.867999008050574e-13 6.867999008050574e-13 6.867999279101117e-14
          7.097952325722801e-13 7.097952325722801e-13 7.097952461248072e-14 6.506785128063131e-13 6.506785128063131e-13 6.50678512806313e-14
          5.132988218498058e-13 5.132988218498058e-13 5.132988150735422e-14 7.729583032661802e-13 7.729583032661802e-13 7.729583574762888e-14
          9.930422369824887e-13 9.930422369824887e-13 9.930422505350159e-14 4.18159403587845e-13 4.18159403587845e-13 4.181593968115814e-14
          2.9183320798993606e-13 2.9183320798993606e-13 2.9183320798993606e-14 3.6447076910348097e-13 3.6447076910348097e-13 3.644707894322717e-14
          7.146311537323258e-13 7.146311537323258e-13 7.146311943899072e-14 6.570935202204753e-13 6.570935202204753e-13 6.570935337730024e-14
          6.943005198545293e-13 6.943005198545293e-13 6.94300574064638e-14 1.4995312934071303e-12 1.4995312934071303e-12 1.4995312934071303e-13
          1.6218110838669975e-12 1.6218110838669975e-12 1.6218110025518345e-13 2.389341328956629e-12 2.389341328956629e-12 2.389341437376846e-13
          1.427485842205034e-12 1.427485842205034e-12 1.427485923520197e-13 6.862077637885544e-13 6.862077637885544e-13 6.862077502360273e-14
          4.558598507356515e-13 4.558598507356515e-13 4.558598846169694e-14 1.1322970555963097e-12 1.1322970555963097e-12 1.1322971098064183e-13
          2.387367376271293e-13 2.387367376271293e-13 2.387367444033929e-14 3.5420676266183226e-13 3.5420676266183226e-13 3.54206782990623e-14
          7.291389172124629e-13 7.291389172124629e-13 7.291389036599358e-14 8.936590616820395e-13 8.936590616820395e-13 8.936590616820395e-14
          2.479151324334683e-13 2.479151324334683e-13 2.4791512565720472e-14 3.5450285827513806e-13 3.5450285827513806e-13 3.545028379463473e-14
          3.0456453331551003e-13 3.0456453331551003e-13 3.045645197629829e-14 1.5830250250838812e-13 1.5830250250838812e-13 1.5830249573212454e-14
          1.679842137787546e-12 1.679842137787546e-12 1.6798421106824918e-13 2.5622503251054862e-12 2.5622503251054862e-12 2.5622502708953776e-13
          9.772514828615408e-13 9.772514828615408e-13 9.772514557564865e-14 9.36590215105948e-13 9.36590215105948e-13 9.36590215105948e-14
          3.60917838584246e-13 3.60917838584246e-13 3.609178589130367e-14 3.56970150054009e-13 3.56970150054009e-13 3.569701432777454e-14
          7.3565264123443e-13 7.3565264123443e-13 7.356526547869571e-14 4.490501124155416e-13 4.490501124155416e-13 4.490501124155416e-14
          5.805082976817477e-13 5.805082976817477e-13 5.805082705766934e-14 2.547841278233154e-12 2.547841278233154e-12 2.547841224023045e-13
          2.7261782241383425e-12 2.7261782241383425e-12 2.7261781157181253e-13 1.0866025960953873e-12 1.0866025960953873e-12 1.0866025283327516e-13
          2.2563040845413607e-12 2.2563040845413607e-12 2.2563040032261977e-13 2.097113281640528e-12 2.097113281640528e-12 2.0971133087455823e-13
          2.299235237965269e-12 2.299235237965269e-12 2.299235292175378e-13 1.5519368559355207e-12 1.5519368559355207e-12 1.551936883040575e-13
          1.530619381240328e-12 1.530619381240328e-12 1.530619299925165e-13 9.66691353701532e-13 9.66691353701532e-13 9.666913943591135e-14
          6.842339195234359e-13 6.842339195234359e-13 6.842338924183816e-14 4.57438936989768e-13 4.57438936989768e-13 4.5743895731855874e-14
          3.8786085888170563e-13 3.8786085888170563e-13 3.878608588817056e-14 8.167777435300061e-13 8.167777435300061e-13 8.167777435300061e-14
          3.3693561178951836e-13 3.3693561178951836e-13 3.3693561178951836e-14 6.691340190267958e-13 6.691340190267958e-13 6.691340054742687e-14
          8.509252872636319e-13 8.509252872636319e-13 8.509253008161591e-14 7.907229558623552e-13 7.907229558623552e-13 7.90722942309828e-14
          4.764865802267537e-13 4.764865802267537e-13 4.76486559897963e-14 5.54157414400791e-13 5.54157414400791e-13 5.541574482821089e-14
          8.342462463027667e-13 8.342462463027667e-13 8.34246273407821e-14 6.625216326071326e-13 6.625216326071326e-13 6.625215919495511e-14
          3.4759437624216905e-13 3.4759437624216905e-13 3.4759436946590547e-14 3.2153961567957245e-13 3.2153961567957245e-13 3.215396021270453e-14
          3.4621269609860783e-13 3.4621269609860783e-13 3.4621268932234425e-14 5.65408342974999e-13 5.65408342974999e-13 5.6540834975126256e-14
          5.879102001234149e-13 5.879102001234149e-13 5.879101865708877e-14 6.913397805619059e-13 6.913397805619059e-13 6.913397534568516e-14
          8.312855070101433e-13 8.312855070101433e-13 8.312855205626704e-14 2.1950160872946656e-12 2.1950160872946656e-12 2.1950160872946656e-13
          2.011250974792711e-12 2.011250974792711e-12 2.0112510018977653e-13 1.4439674499502897e-12 1.4439674499502897e-12 1.4439674228452354e-13
          5.511966751081676e-13 5.511966751081676e-13 5.5119666155564045e-14 3.8233408409735214e-13 3.8233408409735214e-13 3.82334070544825e-14
          2.718973592281959e-13 2.718973592281959e-13 2.7189737278072307e-14 5.645201103451902e-13 5.645201103451902e-13 5.645201171214538e-14
          2.1297804557278421e-13 2.1297804557278421e-13 2.12978048960916e-14 7.140390167158228e-13 7.140390167158228e-13 7.140390167158228e-14
          6.778189121092737e-13 6.778189121092737e-13 6.77818939214328e-14 4.957315482591318e-13 4.957315482591318e-13 4.9573158891671326e-14
          4.1855416159884695e-13 4.1855416159884695e-13 4.185541819276377e-14 4.1835678259334597e-13 4.1835678259334597e-13 4.1835678936960954e-14
          4.71255901055706e-13 4.71255901055706e-13 4.7125586039812456e-14 1.5015050834621402e-12 1.5015050834621402e-12 1.5015050834621402e-13
          1.6130274199666061e-12 1.6130274199666061e-12 1.6130274741767148e-13 2.0048359673785487e-12 2.0048359673785487e-12 2.0048360486937117e-13
          8.171725015410081e-13 8.171725015410081e-13 8.171724608834266e-14 3.447322993472418e-13 3.447322993472418e-13 3.4473231289976897e-14
          5.102393659493776e-13 5.102393659493776e-13 5.102393320680597e-14 1.1091044532438032e-12 1.1091044532438032e-12 1.1091043990336946e-13
          7.65556400824513e-13 7.65556400824513e-13 7.655563737194587e-14 9.147792115818398e-13 9.147792115818398e-13 9.147791844767855e-14
          1.7697509039835135e-12 1.7697509039835135e-12 1.7697507955632963e-13 1.9454232062093846e-12 1.9454232062093846e-12 1.9454232604194932e-13
          1.0893659021724011e-12 1.0893659021724011e-12 1.0893659563825098e-13 1.030347899014239e-12 1.030347899014239e-12 1.0303479532243476e-13
          8.608931709869205e-13 8.608931709869205e-13 8.608931845394477e-14 1.1360474193311543e-12 1.1360474193311543e-12 1.1360474328836814e-13
          1.132790584425225e-12 1.132790584425225e-12 1.1327905573201708e-13 1.2400691367861483e-12 1.2400691367861483e-12 1.240069109681094e-13
          6.31433544773935e-13 6.31433544773935e-13 6.314335176688807e-14 5.110288819713815e-13 5.110288819713815e-13 5.1102886841885437e-14
          5.075746680599513e-13 5.075746680599513e-13 5.075746680599513e-14 4.882309834197684e-13 4.882309834197684e-13 4.88230942762187e-14
          3.15815461889718e-13 3.15815461889718e-13 3.158154551134544e-14 4.113496381626808e-13 4.113496381626808e-13 4.113496246101536e-14
          9.92351383358181e-13 9.92351383358181e-13 9.923514104632353e-14 7.707870799955607e-13 7.707870799955607e-13 7.70787107100615e-14
          3.8756479037345415e-13 3.8756479037345415e-13 3.875647700446634e-14 4.558598507356515e-13 4.558598507356515e-13 4.558598846169694e-14
          7.704910385923636e-13 7.704910385923636e-13 7.704910521448907e-14 4.723415126910158e-13 4.723415126910158e-13 4.7234148558596145e-14
          7.332840389583095e-13 7.332840389583095e-13 7.332840118532552e-14 1.1386134006127757e-12 1.1386134006127757e-12 1.1386134006127757e-13
          1.1557858619823391e-12 1.1557858619823391e-12 1.155785943297502e-13 6.456452126407664e-13 6.456452126407664e-13 6.456452397458207e-14
          2.5067851982564504e-13 2.5067851982564504e-13 2.5067851982564504e-14 1.940291189436033e-13 1.940291189436033e-13 1.940291257198669e-14
          3.9467062430686983e-13 3.9467062430686983e-13 3.946706310831334e-14 4.024673118645933e-13 4.024673118645933e-13 4.02467332193384e-14
          8.224031807120558e-13 8.224031807120558e-13 8.224031942645829e-14 9.28694838045474e-13 9.28694838045474e-13 9.286948515980012e-14
          2.3769061805595237e-12 2.3769061805595237e-12 2.3769061805595237e-13 7.686158567249413e-13 7.686158567249413e-13 7.686158567249413e-14
          4.730323121052149e-13 4.730323121052149e-13 4.7303232565774206e-14 5.962990518026956e-13 5.962990518026956e-13 5.962990653552228e-14
          3.1088085122692177e-13 3.1088085122692177e-13 3.108808444506582e-14 3.311127684969134e-13 3.311127684969134e-13 3.311127684969134e-14
          6.582778484635898e-13 6.582778484635898e-13 6.582778213585355e-14 5.692573691075398e-13 5.692573691075398e-13 5.692573691075398e-14
          6.601529761209035e-13 6.601529761209035e-13 6.60153016778485e-14 4.0256600136734377e-13 4.0256600136734377e-13 4.025660284723981e-14
          3.5252901401001957e-13 3.5252901401001957e-13 3.525290140100196e-14 4.0483594124576805e-13 4.0483594124576805e-13 4.0483594124576805e-14
          2.7870715175841443e-13 2.7870715175841443e-13 2.7870714498215085e-14 8.583271897052991e-13 8.583271897052991e-13 8.583272168103534e-14
          9.415248528737985e-13 9.415248528737985e-13 9.415248257687442e-14 2.3792747286255356e-12 2.3792747286255356e-12 2.3792746202053183e-13
          1.021268247920759e-12 1.021268247920759e-12 1.021268234368232e-13 9.020479133613202e-13 9.020479133613202e-13 9.020478727037387e-14
          4.2714039228362866e-13 4.2714039228362866e-13 4.2714041938868297e-14 5.319516528656809e-13 5.319516528656809e-13 5.319516664182081e-14
          1.0089316535011328e-12 1.0089316535011328e-12 1.0089317077112414e-13 8.102640195080391e-13 8.102640195080391e-13 8.102640601656205e-14
          1.7114236460294419e-12 1.7114236460294419e-12 1.7114237002395505e-13 1.8444609988649274e-12 1.8444609988649274e-12 1.8444609988649274e-13
          9.909696761095654e-13 9.909696761095654e-13 9.909696625570383e-14 4.981002047453609e-13 4.981002047453609e-13 4.981001979690973e-14
          8.194424414194323e-13 8.194424414194323e-13 8.194424414194323e-14 1.3697508838977912e-12 1.3697508838977912e-12 1.3697508025826283e-13
          1.4261041349564185e-12 1.4261041349564185e-12 1.4261041078513642e-13 1.3540587921745395e-12 1.3540587921745395e-12 1.354058737964431e-13
          1.6547742993575087e-12 1.6547742993575087e-12 1.6547742722524544e-13 8.367135651866919e-13 8.367135651866919e-13 8.367135787392191e-14
          1.1813472292412919e-12 1.1813472292412919e-12 1.181347229241292e-13 1.2100666605882604e-12 1.2100666605882604e-12 1.2100666605882604e-13
          9.823834454247837e-13 9.823834454247837e-13 9.823834589773109e-14 6.510733250274237e-13 6.510733250274237e-13 6.510732979223693e-14
          8.211201765187179e-14 8.211201765187179e-14 8.211201765187179e-15 6.578830904525879e-13 6.578830904525879e-13 6.57883104005115e-14
          1.1119665301387305e-12 1.1119665301387305e-12 1.111966489481149e-13 7.094991369589743e-13 7.094991369589743e-13 7.094991911690829e-14
          6.144584624098726e-13 6.144584624098726e-13 6.144584353048183e-14 7.001233902521886e-13 7.001233902521886e-13 7.001234173572429e-14
          6.10115961658525e-13 6.10115961658525e-13 6.101160023161065e-14 4.5141871469166206e-13 4.5141871469166206e-13 4.5141872146792564e-14
          8.826055121133325e-13 8.826055121133325e-13 8.826054850082782e-14 7.901308188458522e-13 7.901308188458522e-13 7.901307646357436e-14
          7.894399652215445e-13 7.894399652215445e-13 7.89439924563963e-14 4.1885025721215274e-13 4.1885025721215274e-13 4.18850236883362e-14
          4.939551372096229e-13 4.939551372096229e-13 4.9395512365709576e-14 3.5233160789946427e-13 3.5233160789946427e-13 3.523316214519914e-14
          3.1808537466308795e-13 3.1808537466308795e-13 3.180853678868244e-14 4.913891017178929e-13 4.913891017178929e-13 4.913891220466836e-14
          6.936097204403302e-13 6.936097204403302e-13 6.936096662302216e-14 1.4461386732209092e-12 1.4461386732209092e-12 1.4461386732209092e-13
          2.696570614371674e-12 2.696570614371674e-12 2.696570451741348e-13 1.3923514034439033e-12 1.3923514034439033e-12 1.3923514034439033e-13
          4.544781705920903e-13 4.544781705920903e-13 4.544781705920903e-14 4.261534701510694e-13 4.261534701510694e-13 4.2615349047986015e-14
          1.212928683273079e-13 1.212928683273079e-13 1.2129287340950558e-14 5.346163507551072e-13 5.346163507551072e-13 5.346163643076343e-14
          4.058228633783273e-13 4.058228633783273e-13 4.058228701545909e-14 8.067110889888041e-13 8.067110889888041e-13 8.067111296463855e-14
          3.8914384952251635e-13 3.8914384952251635e-13 3.891438427462528e-14 7.701949429790578e-13 7.701949429790578e-13 7.701949294265306e-14